
     Program PWSCF v.5.3.0 (svn rev. 11974) starts on 14Apr2017 at  0:25:23 

     This program is part of the open-source Quantum ESPRESSO suite
     for quantum simulation of materials; please cite
         "P. Giannozzi et al., J. Phys.:Condens. Matter 21 395502 (2009);
          URL http://www.quantum-espresso.org", 
     in publications or presentations arising from this work. More details at
     http://www.quantum-espresso.org/quote

     Parallel version (MPI), running on    24 processors
     R & G space division:  proc/nbgrp/npool/nimage =      24
     Reading input from ./in

     Current dimensions of program PWSCF are:
     Max number of different atomic species (ntypx) = 10
     Max number of k-points (npk) =  40000
     Max angular momentum in pseudopotentials (lmaxx) =  3

     Atomic positions and unit cell read from directory:
     ./CsSnI3.save/
 
               file Cs.pbe-mt_fhi.UPF: wavefunction(s)  5d 4f renormalized
               file Sn.pbe-mt_fhi.UPF: wavefunction(s)  5d 4f renormalized
               file I.pbe-mt_fhi.UPF: wavefunction(s)  5d 4f renormalized

     Subspace diagonalization in iterative solution of the eigenvalue problem:
     one sub-group per k-point group (pool) will be used
     scalapack distributed-memory algorithm (size of sub-group:  3*  3 procs)

 
     Parallelization info
     --------------------
     sticks:   dense  smooth     PW     G-vecs:    dense   smooth      PW
     Min         146     146     36                 6530     6530     812
     Max         147     147     37                 6537     6537     817
     Sum        3521    3521    877               156795   156795   19549
 


     bravais-lattice index     =            0
     lattice parameter (alat)  =      11.7522  a.u.
     unit-cell volume          =    1623.1458 (a.u.)^3
     number of atoms/cell      =            5
     number of atomic types    =            3
     number of electrons       =        26.00
     number of Kohn-Sham states=         2010
     kinetic-energy cutoff     =      80.0000  Ry
     charge density cutoff     =     320.0000  Ry
     Exchange-correlation      = PBE ( 1  4  3  4 0 0)

     celldm(1)=  11.752200  celldm(2)=   0.000000  celldm(3)=   0.000000
     celldm(4)=   0.000000  celldm(5)=   0.000000  celldm(6)=   0.000000

     crystal axes: (cart. coord. in units of alat)
               a(1) = (   1.000000   0.000000   0.000000 )  
               a(2) = (   0.000000   1.000000   0.000000 )  
               a(3) = (   0.000000   0.000000   1.000000 )  

     reciprocal axes: (cart. coord. in units 2 pi/alat)
               b(1) = (  1.000000  0.000000  0.000000 )  
               b(2) = (  0.000000  1.000000  0.000000 )  
               b(3) = (  0.000000  0.000000  1.000000 )  


     PseudoPot. # 1 for Cs read from file:
     ./Cs.pbe-mt_fhi.UPF
     MD5 check sum: cbf02b8bb436d1f1f7a480ef9056bbdc
     Pseudo is Norm-conserving + core correction, Zval =  1.0
     Generated using FHI98PP, converted with fhi2upf.x v.5.0.2
     Using radial grid of  551 points,  3 beta functions with: 
                l(1) =   0
                l(2) =   2
                l(3) =   3

     PseudoPot. # 2 for Sn read from file:
     ./Sn.pbe-mt_fhi.UPF
     MD5 check sum: c8229872f1b50076eeaf5282003891c9
     Pseudo is Norm-conserving, Zval =  4.0
     Generated using FHI98PP, converted with fhi2upf.x v.5.0.2
     Using radial grid of  547 points,  3 beta functions with: 
                l(1) =   1
                l(2) =   2
                l(3) =   3

     PseudoPot. # 3 for  I read from file:
     ./I.pbe-mt_fhi.UPF
     MD5 check sum: 3c90a314e8351593fb628bbc7e3f7947
     Pseudo is Norm-conserving, Zval =  7.0
     Generated using FHI98PP, converted with fhi2upf.x v.5.0.2
     Using radial grid of  551 points,  3 beta functions with: 
                l(1) =   1
                l(2) =   2
                l(3) =   3

     atomic species   valence    mass     pseudopotential
        Cs             1.00   132.90500     Cs( 1.00)
        Sn             4.00   118.71000     Sn( 1.00)
        I              7.00   126.90400      I( 1.00)

     48 Sym. Ops., with inversion, found



   Cartesian axes

     site n.     atom                  positions (alat units)
         1           Cs  tau(   1) = (   0.5000000   0.5000000   0.5000000  )
         2           Sn  tau(   2) = (   0.0000000   0.0000000   0.0000000  )
         3           I   tau(   3) = (   0.0000000   0.0000000   0.5000000  )
         4           I   tau(   4) = (   0.0000000   0.5000000   0.0000000  )
         5           I   tau(   5) = (   0.5000000   0.0000000   0.0000000  )

     number of k points=     1
                       cart. coord. in units 2pi/alat
        k(    1) = (   0.0000000   0.0000000   0.0000000), wk =   2.0000000

     Dense  grid:   156795 G-vectors     FFT dimensions: (  72,  72,  72)

     Largest allocated arrays     est. size (Mb)     dimensions
        Kohn-Sham Wavefunctions        24.97 Mb     (     814, 2010)
        NL pseudopotentials             0.91 Mb     (     814,   73)
        Each V/rho on FFT grid          0.24 Mb     (   15552)
        Each G-vector array             0.05 Mb     (    6532)
        G-vector shells                 0.01 Mb     (     830)
     Largest temporary arrays     est. size (Mb)     dimensions
        Each subspace H/S matrix        6.85 Mb     (     670,  670)
        Each <psi_i|beta_j> matrix      2.24 Mb     (      73, 2010)

     The potential is recalculated from file :
     ./CsSnI3.save/charge-density.dat

     Starting wfc are random

     Band Structure Calculation
     CG style diagonalization
     c_bands:  6 eigenvalues not converged

     ethr =  3.85E-13,  avg # of iterations = 63.9

     total cpu time spent up to now is      878.5 secs

     End of band structure calculation

          k = 0.0000 0.0000 0.0000 ( 19549 PWs)   bands (ev):

   -10.8354 -10.1448 -10.1448  -3.8152  -2.2692  -2.2692  -2.2692   0.1037
     0.1037   0.1037   0.2266   0.2266   0.2266   4.5992   5.5686   5.5686
     5.9001   5.9001   5.9001   7.0715   7.0715   7.0715   8.2975   8.2975
     8.2975  10.5658  10.5658  10.5844  10.5844  10.5844  11.0104  11.9883
    11.9883  13.1754  13.2183  13.2183  13.2183  13.4491  13.4491  13.4491
    13.5471  13.5471  13.5471  14.3909  14.4219  14.5705  14.5705  14.5705
    15.7033  15.7033  15.7033  16.0427  16.0427  16.8301  16.8301  16.8301
    17.9022  18.4994  18.9506  18.9506  18.9506  18.9600  18.9600  18.9600
    18.9807  18.9807  19.2516  19.2516  19.2516  20.4648  20.4648  21.8931
    21.8931  21.8931  22.8621  22.8621  22.8621  22.9560  22.9560  22.9560
    23.6592  23.6592  23.6592  24.3900  24.3900  24.3900  25.1043  25.1043
    25.1043  25.5408  25.7463  25.7463  25.7463  25.8159  25.8159  25.8159
    26.1381  27.4580  27.4580  28.2295  28.2295  28.2295  28.8023  28.8023
    28.8023  28.9209  28.9209  29.3783  29.3783  29.3783  29.6380  30.1061
    30.4006  30.4006  31.0520  31.0520  31.0520  31.9715  31.9715  31.9715
    32.2194  32.2194  32.3463  32.3463  32.3463  32.4397  33.2180  33.2180
    33.2180  33.3571  33.3571  33.3571  33.4928  33.4928  33.4928  34.0190
    34.4938  34.4938  34.4938  34.5142  34.5142  36.0937  36.0937  36.0937
    36.1481  36.2307  36.2307  36.2700  36.2700  36.2700  36.5698  36.5698
    36.5698  38.4116  38.4116  38.4116  38.9414  38.9414  38.9414  39.0653
    39.0653  39.5142  39.5142  39.5142  39.5259  39.8114  40.0502  40.0502
    40.0502  40.1593  40.1593  40.1593  41.4841  41.4841  41.8902  41.8902
    41.8902  42.1378  42.1378  42.1378  42.7224  42.7224  43.0474  43.0474
    43.0474  44.2264  44.2264  44.2264  44.3947  44.5513  44.7194  44.7194
    44.7194  45.0280  45.0280  45.0280  45.0737  45.0737  45.0737  46.3172
    46.3249  46.6274  46.6274  46.6274  47.0446  47.0446  47.1102  47.1102
    47.1102  47.3692  47.3692  47.3692  47.9762  47.9762  48.9685  49.1798
    49.1798  49.1798  49.7333  49.7333  49.7333  50.7019  50.7019  50.7019
    51.5406  51.5406  51.5406  51.6390  51.6390  51.6443  51.6443  51.6443
    52.1105  52.1105  52.1105  52.7065  52.7065  52.7065  52.7624  52.7624
    52.7624  52.9483  53.0422  53.4933  53.4933  53.4933  53.7021  53.7021
    53.7021  53.9175  53.9175  53.9175  53.9192  53.9418  53.9418  54.0600
    54.0600  54.8952  55.4121  55.4121  55.4121  55.5288  55.5288  55.5288
    55.8741  55.8741  57.3827  57.3827  57.3827  57.6568  57.6568  57.6568
    58.4248  58.4248  58.4248  58.6774  58.9697  58.9697  59.4698  60.8305
    60.8305  61.4596  61.7530  61.7530  61.7530  61.8459  61.9577  61.9577
    61.9577  62.0981  62.0981  62.2513  62.2513  62.2513  62.3041  62.3041
    62.3041  63.6885  63.6885  63.6885  63.8304  63.8304  63.8304  63.8664
    63.8664  63.8664  64.1817  64.1817  64.5542  64.5542  64.5542  65.1560
    65.1560  65.1560  65.3110  65.3110  65.3110  66.2152  66.2152  66.2152
    66.3978  66.3978  66.3978  66.4099  66.9594  66.9594  67.5468  67.5468
    67.5468  67.5630  68.0751  68.0751  68.0751  68.1438  68.1438  68.1438
    68.4885  68.4885  68.4885  68.5971  68.5971  68.5971  68.7161  69.0156
    69.0156  69.2081  69.2081  69.2081  70.2205  70.2205  70.7404  70.7404
    71.0881  71.0881  71.0881  71.3525  71.3525  71.3525  71.4252  71.4252
    71.4252  71.7891  71.7891  71.7891  71.8066  71.8066  71.8066  72.3020
    72.3020  72.3020  72.4574  72.5028  72.5028  72.8710  72.8710  72.8710
    73.1234  73.1234  73.1234  73.2060  73.2060  73.2060  73.6184  73.6184
    73.7564  74.1420  74.1420  74.3706  74.3706  74.3706  74.6331  74.9654
    74.9654  74.9654  75.0177  75.0283  75.0283  76.8712  76.8712  76.8712
    77.6609  77.6609  77.6609  78.2691  78.2691  78.2691  78.9437  78.9960
    78.9960  78.9960  79.2297  79.2297  79.2297  79.6059  79.6059  79.6059
    79.6668  79.9938  79.9938  79.9938  80.0069  80.0069  80.0069  80.0992
    80.1196  80.1196  80.1196  80.1215  80.4376  80.4376  80.9544  80.9544
    81.4221  81.4221  81.4221  81.7283  81.8960  81.8960  81.8960  82.1345
    82.1345  82.4797  82.4852  82.4852  82.5183  82.5183  82.5183  82.7553
    82.7553  82.7553  82.8393  82.8393  82.8393  83.5476  83.5476  83.7661
    83.7661  83.7661  83.9066  83.9066  83.9066  84.0836  84.0836  84.0836
    84.7995  84.7995  84.7995  84.8925  85.1482  85.1482  85.1482  85.3762
    85.3762  85.3762  87.5598  87.5598  87.5598  87.6111  87.6111  87.6111
    87.8036  87.8036  87.8036  88.1290  89.1511  89.1511  89.8965  89.8965
    89.8965  89.9943  89.9943  90.5769  90.5769  90.5769  90.6589  90.7772
    90.7772  90.7772  91.2038  91.2038  91.2038  91.4291  91.4291  92.1214
    92.1214  92.1214  92.4215  92.4215  92.8545  93.0373  93.0373  93.0373
    93.6682  93.6682  93.6695  93.6695  93.6695  93.7341  94.1309  94.1309
    94.1309  94.6438  94.6438  94.6438  94.8807  94.8807  95.6597  95.6597
    95.6597  96.3096  96.3930  96.3930  96.3930  96.5432  96.5432  96.8412
    96.9151  96.9151  97.0272  97.0272  97.0272  97.1653  97.8624  97.8624
    97.8624  98.1376  98.1376  98.1376  98.1729  98.1729  98.1729  98.2603
    98.2603  98.2603  98.3933  98.3933  98.3933  98.7997  98.7997  98.7997
    99.0489  99.8074  99.8074  99.8074 100.0349 100.0349 100.0349 100.2034
   100.2034 100.2034 100.2485 100.2485 100.2485 100.3410 100.3410 100.3410
   100.6034 100.6034 100.7729 100.9563 100.9563 100.9563 100.9606 100.9606
   101.1469 101.1469 101.1469 101.1717 101.1717 101.1717 101.3711 101.4843
   101.8310 101.8310 102.1587 102.1587 102.1587 102.4901 102.4901 102.6776
   102.6776 102.6776 103.3468 103.3468 103.3468 103.5705 103.5705 103.5705
   103.6532 103.6532 103.6532 104.0529 104.0529 104.0529 104.1261 104.1261
   104.1261 104.1611 104.2163 104.3100 104.3100 104.3100 104.5123 104.5123
   104.5123 104.7102 104.7102 105.0463 105.9169 105.9169 105.9169 106.3659
   106.3659 106.3659 106.4447 106.4447 107.0613 107.3356 107.3356 107.3356
   107.3554 107.3554 107.3554 107.9735 107.9735 107.9735 108.9156 108.9156
   108.9671 108.9671 108.9671 108.9959 109.2874 109.2874 109.2874 109.3718
   109.7142 109.7655 109.7655 109.8520 109.8520 109.8520 109.9416 109.9416
   109.9416 110.2091 110.2091 110.2091 110.2813 110.2813 110.2813 110.8532
   111.5999 111.5999 111.5999 111.6314 111.6314 111.7341 111.7341 111.9796
   111.9796 111.9796 111.9816 111.9816 111.9816 112.7320 112.7320 112.7320
   112.7569 113.0879 113.0879 113.4203 113.4203 113.4203 113.8985 113.8985
   113.8985 113.9361 113.9361 113.9361 114.2723 114.2979 114.2979 114.4006
   114.4006 114.4006 114.6087 114.6087 114.6087 114.8758 114.8758 114.8758
   115.1091 115.1091 115.1091 115.1964 115.1964 115.4020 115.4020 115.4020
   115.4061 115.4061 115.5443 115.5443 115.5443 115.5929 115.6376 115.6692
   115.6692 115.6692 116.0146 116.0146 116.0146 116.8918 116.8918 116.8918
   117.1040 117.4198 117.6286 117.6286 117.7613 117.7613 117.7613 117.8523
   117.8523 117.8523 118.3414 118.3414 118.3414 118.8951 118.8951 119.5389
   119.5389 119.5389 119.6951 119.6951 119.6951 120.0509 121.4038 121.4038
   121.4820 121.4820 121.4820 122.3116 122.3116 122.3116 123.6877 123.6877
   123.6877 124.1387 124.3039 124.3039 124.3039 124.6219 124.6219 124.6219
   125.0039 125.0039 125.0039 125.3346 125.9067 125.9067 125.9912 125.9912
   125.9912 126.0621 126.0621 126.0621 126.1979 126.1979 126.1979 126.3995
   126.3995 126.3995 126.5996 126.5996 126.6258 126.6258 126.6258 126.6528
   127.1423 127.2263 127.2263 127.2263 127.4431 127.4431 127.4431 127.5070
   127.5070 127.8601 128.1381 128.1381 128.1381 128.3107 128.3107 128.4557
   128.4557 128.4557 128.7836 128.7836 128.8019 128.8019 128.8019 129.1152
   129.1152 129.1977 129.1977 129.1977 129.4243 129.4243 129.4243 129.8444
   129.8444 129.8444 129.9962 129.9962 129.9962 130.1344 130.1344 130.1344
   130.5488 130.6176 130.6176 130.6176 130.9712 130.9712 131.1251 131.1251
   131.1251 132.1112 132.2392 132.5495 132.5495 132.7350 132.7350 132.7350
   132.8634 132.8634 132.8634 133.5520 133.6382 133.6382 133.6382 133.6727
   133.6727 133.6727 133.8888 133.8888 133.8888 134.2785 134.2785 134.2785
   134.4612 134.7694 134.7694 134.7694 134.9088 134.9088 135.0223 135.0223
   135.0223 135.2100 135.2100 135.3864 135.3864 135.3864 135.6201 135.6201
   135.6201 135.7591 135.8609 135.8609 135.8609 136.0037 136.0037 136.0037
   136.0364 136.0364 136.2725 136.2787 136.2787 136.2787 136.6848 136.6848
   136.6848 136.8078 136.8078 136.8843 136.8843 136.8843 136.9777 136.9777
   136.9777 137.0867 138.0669 138.0669 138.0669 138.2908 138.2908 138.2908
   138.3893 138.3893 138.3893 138.5043 138.5043 138.7012 138.7012 138.7012
   138.8500 138.8500 138.8500 139.2440 139.2440 139.2947 139.2947 139.4426
   139.4426 139.4426 139.5172 139.5172 139.5172 139.5219 139.5219 139.5653
   139.7834 139.9141 139.9141 139.9141 140.0661 140.0661 140.0661 140.9951
   141.4759 141.4759 141.4759 141.8527 141.8527 143.2800 143.2800 143.2800
   143.3679 143.7596 143.7596 143.7596 144.3687 144.3687 144.3687 144.5082
   144.5866 144.5866 144.5866 144.8972 144.8972 144.8972 145.2492 145.2492
   145.2492 145.4772 145.5337 145.5337 145.5337 145.8316 145.8316 145.8316
   145.9823 145.9823 145.9823 146.2706 146.2706 146.2706 146.3314 146.3314
   146.3314 146.3413 146.3413 146.5746 146.5746 146.5746 146.5813 146.5813
   146.8185 146.8185 146.8185 146.9280 146.9990 146.9990 146.9990 147.1421
   147.1421 147.1421 147.4251 147.4251 147.4941 147.4978 147.4978 147.4978
   147.6553 147.6553 148.2539 148.2539 148.2539 148.2930 148.2930 148.2930
   148.7282 148.7282 148.7282 149.3764 149.3764 149.3764 149.4182 149.4182
   149.7049 150.6071 150.6071 150.6071 150.6076 150.6076 150.6076 150.9401
   151.8789 151.8789 152.1977 152.3016 152.3016 152.3016 152.4855 152.4993
   152.4993 153.0018 153.0018 153.0018 153.4361 153.4361 153.6072 153.6072
   153.6072 153.6078 153.6078 153.6078 153.6385 154.2727 154.2727 154.2727
   154.3964 154.3964 154.3964 154.9958 154.9958 155.9025 155.9025 155.9025
   155.9943 156.0633 156.0633 156.0633 156.4821 156.4821 156.4821 156.7256
   156.7256 156.7256 156.8382 156.8382 156.8382 156.9372 156.9372 156.9372
   156.9724 157.3851 157.3851 157.4238 157.4238 157.5138 157.5996 157.5996
   157.5996 157.7455 157.7455 157.7455 157.7629 157.7629 157.8377 157.8377
   157.8377 157.9207 157.9207 157.9207 158.2383 158.2383 158.3862 158.3862
   158.3862 158.5073 158.7412 158.7412 158.7412 159.0426 159.0426 159.0426
   159.0639 159.0639 159.2821 159.2838 159.3060 159.3060 159.3060 159.3903
   159.3903 159.5541 159.5541 159.5541 159.5701 159.5701 159.5701 159.6275
   159.6275 159.6275 159.9055 159.9055 159.9055 160.1111 160.1111 160.1111
   160.2638 160.3707 160.3707 160.3707 160.4899 160.4899 160.4899 160.7305
   160.8085 160.8085 160.8085 161.1434 161.1434 161.4636 161.4636 161.4636
   161.5052 161.5052 161.5052 162.1721 162.2645 162.2645 162.2645 162.5129
   162.5129 162.5129 162.5845 162.5845 162.5845 162.5858 162.5858 162.7523
   162.7523 162.7523 162.7997 162.7997 163.1627 163.1627 163.1627 163.1638
   163.1984 163.1984 163.1984 163.3668 163.4365 163.4365 163.4365 163.4405
   163.4405 163.4405 163.5077 163.5077 163.9755 163.9755 164.7348 164.7348
   164.7348 165.2980 165.2980 165.2980 165.3877 165.3877 165.3877 165.5581
   165.5581 165.5581 165.7238 165.8008 165.8008 165.8008 166.0883 166.0883
   167.0444 167.0444 167.0444 167.3533 167.3533 167.3533 167.3670 167.7827
   167.7827 167.7827 168.3547 168.3547 168.3547 168.8037 168.8037 169.1211
   169.1211 169.1211 169.3853 169.3853 169.3853 169.4746 169.4746 169.9014
   169.9014 169.9014 169.9359 169.9359 170.1224 170.1224 170.1224 170.8261
   170.8261 170.8261 170.9007 170.9892 171.1669 171.1669 171.1669 171.1670
   171.1670 171.1670 171.3639 171.3639 171.3639 171.4366 171.4366 171.4366
   171.4920 171.4920 171.7227 172.4088 172.5650 172.5650 172.6660 172.6660
   172.6660 172.7194 172.7194 172.7194 172.7505 172.7505 172.7505 172.7588
   172.7628 172.7628 172.7628 172.8959 172.8959 172.8959 173.1358 173.6972
   173.6972 173.7647 173.7647 173.7647 173.8211 173.8211 173.8211 173.8660
   173.8660 173.8660 174.2919 174.3318 174.3318 174.7595 174.7595 174.7595
   175.1422 175.8246 175.8246 175.8246 176.0296 176.0296 176.1880 176.1880
   176.1880 176.1955 176.1955 176.1955 176.4900 176.4900 177.0030 177.0030
   177.0030 177.1360 177.1360 177.1360 177.4747 177.4747 177.4747 177.5406
   177.5406 177.5406 178.0121 178.0121 178.0893 178.0893 178.0893 178.1676
   178.1676 178.1676 178.2104 178.2104 178.2104 178.2701 178.3325 178.3325
   178.3325 178.4534 178.5719 178.5719 178.5719 178.7889 178.7889 179.2291
   179.2291 179.2291 179.7705 179.7705 179.7705 180.2023 180.3591 180.3591
   181.7762 182.2505 182.2505 182.2505 182.3971 182.3971 182.6824 182.6824
   182.6824 183.0848 183.0848 183.0848 184.2197 184.3678 184.3678 184.3678
   184.4993 184.8358 184.8358 184.8358 185.7871 185.7871 185.7871 185.9529
   185.9529 185.9529 186.0313 186.4279 186.4279 186.4279 186.8132 186.8132
   187.1529 187.4846 187.4846 187.4846 187.5429 187.5429 187.5429 187.6784
   187.6784 187.6784 187.7518 187.7518 188.1074 188.1074 188.1074 188.1239
   188.1847 188.1847 188.1847 188.1873 188.1873 188.3340 188.6411 188.6411
   188.8960 188.8960 188.8960 189.0496 189.0496 189.0496 189.4858 189.4858
   189.4858 189.5821 189.6664 189.6664 189.6664 189.7796 189.7796 189.7796
   189.9609 189.9609 189.9609 190.0554 190.3380 190.3380 190.4404 190.4404
   190.4404 190.4760 190.4760 190.4760 190.7178 190.7178 190.7691 190.7691
   190.7691 191.0175 191.0175 191.0175 191.1624 191.1624 191.5659 191.5659
   191.5659 191.5759 191.7859 191.7859 191.7859 191.8369 192.2779 192.2779
   192.2779 192.3337 192.3337 192.4414 192.4414 192.4414 192.4912 192.5728
   192.5728 192.5728 192.6764 192.6764 192.6764 192.6866 192.6866 192.6866
   192.9331 192.9331 192.9716 193.2429 193.2429 193.2429 193.3718 193.3718
   193.3718 193.7026 193.7026 193.7026 193.8348 193.8348 193.8348 193.8690
   193.8690 194.4365 194.4365 194.4365 195.0406 195.0542 195.0542 195.0542
   195.4305 195.4305 195.4305 195.4519 195.7741 195.7741 195.8094 195.8094
   195.8094 195.9887 195.9887 195.9887 196.0434 196.0434 196.0434 196.0609
   196.0609 196.0870 196.0870 196.0870 196.2467 196.2467 196.2467 196.5035
   196.5035 196.5035 196.5936 196.6231 196.6231 196.6231 196.6576 196.6576
   197.0112 197.0112 197.0112 197.1047 197.1047 197.1047 197.1817 197.1817
   197.1817 197.5252 197.5252 197.5252 197.5428 197.6411 197.6411 197.7099
   197.7099 197.7099 197.7503 197.7503 197.7503 197.7511 198.1577 198.1577
   199.1444 199.1444 199.1444 199.2369 199.2369 199.2369 199.8571 199.8571
   199.8571 200.1121 200.3029 200.3029 200.3029 200.3077 200.3077 200.3077
   200.3791 200.4841 200.4841 201.1616 201.1616 201.1616 201.1879 201.1879
   201.1879 201.3278 201.3278 201.3278 201.5495 201.5495 202.0236 202.1942
   202.1942 202.3697 202.3697 202.3697 202.6000 202.7559 202.7559 203.2323
   203.2323 203.2323 203.6065 203.8261 203.8261 203.8261 203.8716 203.8716
   203.8716 203.9579 203.9579 203.9579 204.3089 204.3089 204.3605 204.3605
   204.3605 204.3965 204.3965 204.3965 204.6739 204.6739 204.6739 204.7762
   204.9135 205.1854 205.1854 205.1854 205.2028 205.2028 205.2028 205.3808
   205.3808 205.4562 205.4562 205.4562 205.4606 205.4606 205.4606 206.0506
   206.0506 206.2218 206.2218 206.2472 206.3504 206.6469 206.6469 206.6469
   206.6554 206.6554 206.6554 206.7568 206.7568 206.7568 206.9673 207.0513
   207.0513 207.0513 207.2637 207.2637 207.2637 207.3889 207.3889 207.3889
   207.5934 207.5934 207.5934 207.6570 207.6570 207.7149 207.7149 207.7149
   207.7353 207.7353 207.8118 207.8118 207.8118 207.8480 207.8480 207.8480
   208.0154 208.0154 208.0154 208.1735 208.1735 208.1735 208.3026 208.4430
   208.4430 208.4672 208.4672 208.4672 208.4892 208.4892 208.5629 208.6480
   208.6480 208.6480 208.7809 208.7809 208.7809 209.0001 209.0001 209.1775
   209.2286 209.2286 209.2286 209.3260 209.3260 209.3260 209.5552 209.7175
   209.7175 209.7175 210.0223 210.0223 210.0223 210.0415 210.0415 210.0415
   210.1079 210.1373 210.1373 210.3512 210.3512 210.3512 210.5051 210.5051
   210.5051 210.6500 210.6500 210.6500 210.7208 210.7208 210.9096 211.1725
   211.2493 211.2493 211.2493 212.4102 212.4102 212.4102 212.7020 212.7020
   212.7020 213.5885 213.5885 214.2564 214.2564 214.2564 214.2991 214.2991
   214.5858 214.5858 214.5858 215.0272 215.0272 215.0272 215.6058 215.6058
   215.6058 215.8781 215.8781 215.8781 215.9761 215.9761 215.9761 216.0219
   216.0219 216.0284 216.0284 216.0519 216.0519 216.0519 216.3421 216.6043
   216.6043 216.6043 216.9545 216.9545 216.9545 217.1196 217.4038 217.4038
   217.4887 217.4887 217.4887 217.5068 217.5068 217.5068 217.5832 217.5832
   217.5940 217.5940 217.5940 217.9377 217.9377 217.9377 218.0199 218.0199
   218.0199 218.2522 219.1776 219.1776 219.1776 219.1908 219.1908 219.1908
   219.2271 219.2271 219.2397 219.2397 219.2397 219.2894 219.2894 219.2894
   219.6159 219.8500 219.8500 219.8500 219.9860 219.9860 220.1451 220.1451
   220.1451 220.1600 220.1600 220.1600 220.2060 220.2060 220.2060 220.2148
   220.3167 220.4550 220.4550 220.4550 220.5847 220.5847 220.5847 220.6049
   220.6316 220.6316 220.6316 220.7300 220.7300 220.7300 221.2270 221.2270
   221.7430 221.7430 221.7430 222.1762 222.4259 222.4259 222.4259 222.6499
   222.6499 223.0871 223.0871 223.0871 223.2418 223.7122 226.3669 226.3669
   226.3669 226.5472 226.5668 226.5668 226.5668 226.6593 226.6593 226.6593
   226.8506 226.8506 226.8506 226.8562 226.8562 226.9579 226.9579 227.0522
   227.0522 227.0522 227.3161 227.3161 227.3449 227.3449 227.3449 227.4142
   227.4142 227.4142 227.5301 227.5499 227.5499 227.5499 227.6286 227.6286
   227.6286 227.9120 227.9120 227.9120 227.9326 227.9326 227.9326 228.0295
   228.0295 228.1038 228.1038 228.1038 228.4155 228.4155 228.4155 228.5443
   228.6462 228.6768 228.6768 228.6768 228.7705 228.7705 228.8945 228.8945
   228.8945 228.9816 228.9816 228.9816 228.9983 228.9983 228.9983 229.1600
   229.1600 229.1600 229.1650 229.1650 230.4034 230.4034 230.5592 230.7925
   230.8520 230.8520 231.0853 231.0853 231.0853 231.1749 231.1749 231.1749
   231.3380 231.3380 231.3380 231.8695 231.8695 231.8695 232.4684 232.4684
   232.4684 232.6071 232.6071 232.6071 233.0495 233.3020 233.3020 233.3921
   233.3921 233.3921 233.5608 233.5608 233.5608 233.6230 233.8040 234.0404
   234.0404 234.0404 234.0988 234.0988 234.0988 234.8448 234.8448 234.8448
   234.9424 235.1202 235.1202 235.1202 235.2145 235.2145 235.4947 235.4947
   235.4947 235.5483 235.5483 235.6903 235.6903 235.6903 235.7569 235.7569
   235.9321 235.9321 235.9321 236.1650 236.2539 236.2539 236.4587 236.4587
   236.4587 236.5863 236.5863 236.5863 237.4471 237.4566 237.4566 237.5437
   237.5437 237.5438

     Writing output data file CsSnI3.save
 
     init_run     :      0.18s CPU      0.62s WALL (       1 calls)
     electrons    :    872.84s CPU    877.52s WALL (       1 calls)

     Called by init_run:
     wfcinit      :      0.00s CPU      0.18s WALL (       1 calls)
     potinit      :      0.03s CPU      0.13s WALL (       1 calls)

     Called by electrons:
     c_bands      :    872.84s CPU    877.48s WALL (       1 calls)
     v_of_rho     :      0.01s CPU      0.01s WALL (       1 calls)

     Called by c_bands:
     init_us_2    :      0.00s CPU      0.00s WALL (       1 calls)
     ccgdiagg     :    819.46s CPU    822.67s WALL (       6 calls)
     wfcrot       :     52.83s CPU     54.20s WALL (       6 calls)

     Called by sum_band:

     Called by *cgdiagg:
     h_psi        :    102.30s CPU    103.69s WALL (  114230 calls)
     cdiaghg      :     33.28s CPU     33.98s WALL (       6 calls)

     Called by h_psi:
     add_vuspsi   :      5.26s CPU      5.35s WALL (  114230 calls)
     h_1psi       :     96.24s CPU     97.90s WALL (  114224 calls)

     General routines
     calbec       :     30.98s CPU     32.24s WALL (  228454 calls)
     fft          :      0.01s CPU      0.03s WALL (      11 calls)
     fftw         :     61.77s CPU     61.76s WALL (  252568 calls)
     davcio       :      0.00s CPU      0.06s WALL (       2 calls)
 
     Parallel routines
     fft_scatter  :     25.40s CPU     25.30s WALL (  252579 calls)
 
     PWSCF        : 14m37.16s CPU    14m43.95s WALL

 
   This run was terminated on:   0:40: 7  14Apr2017            

=------------------------------------------------------------------------------=
   JOB DONE.
=------------------------------------------------------------------------------=

     Program PWSCF v.5.3.0 (svn rev. 11974) starts on 14Apr2017 at  6:57: 1 

     This program is part of the open-source Quantum ESPRESSO suite
     for quantum simulation of materials; please cite
         "P. Giannozzi et al., J. Phys.:Condens. Matter 21 395502 (2009);
          URL http://www.quantum-espresso.org", 
     in publications or presentations arising from this work. More details at
     http://www.quantum-espresso.org/quote

     Parallel version (MPI), running on    24 processors
     R & G space division:  proc/nbgrp/npool/nimage =      24
     Reading input from ./in

     Current dimensions of program PWSCF are:
     Max number of different atomic species (ntypx) = 10
     Max number of k-points (npk) =  40000
     Max angular momentum in pseudopotentials (lmaxx) =  3

     Atomic positions and unit cell read from directory:
     ./CsSnI3.save/
 
               file Cs.pbe-mt_fhi.UPF: wavefunction(s)  5d 4f renormalized
               file Sn.pbe-mt_fhi.UPF: wavefunction(s)  5d 4f renormalized
               file I.pbe-mt_fhi.UPF: wavefunction(s)  5d 4f renormalized

     Subspace diagonalization in iterative solution of the eigenvalue problem:
     one sub-group per k-point group (pool) will be used
     scalapack distributed-memory algorithm (size of sub-group:  3*  3 procs)

 
     Parallelization info
     --------------------
     sticks:   dense  smooth     PW     G-vecs:    dense   smooth      PW
     Min         146     146     36                 6530     6530     830
     Max         147     147     37                 6537     6537     835
     Sum        3521    3521    885               156795   156795   20005
 


     bravais-lattice index     =            0
     lattice parameter (alat)  =      11.7522  a.u.
     unit-cell volume          =    1623.1458 (a.u.)^3
     number of atoms/cell      =            5
     number of atomic types    =            3
     number of electrons       =        26.00
     number of Kohn-Sham states=         2010
     kinetic-energy cutoff     =      80.0000  Ry
     charge density cutoff     =     320.0000  Ry
     Exchange-correlation      = PBE ( 1  4  3  4 0 0)

     celldm(1)=  11.752200  celldm(2)=   0.000000  celldm(3)=   0.000000
     celldm(4)=   0.000000  celldm(5)=   0.000000  celldm(6)=   0.000000

     crystal axes: (cart. coord. in units of alat)
               a(1) = (   1.000000   0.000000   0.000000 )  
               a(2) = (   0.000000   1.000000   0.000000 )  
               a(3) = (   0.000000   0.000000   1.000000 )  

     reciprocal axes: (cart. coord. in units 2 pi/alat)
               b(1) = (  1.000000  0.000000  0.000000 )  
               b(2) = (  0.000000  1.000000  0.000000 )  
               b(3) = (  0.000000  0.000000  1.000000 )  


     PseudoPot. # 1 for Cs read from file:
     ./Cs.pbe-mt_fhi.UPF
     MD5 check sum: cbf02b8bb436d1f1f7a480ef9056bbdc
     Pseudo is Norm-conserving + core correction, Zval =  1.0
     Generated using FHI98PP, converted with fhi2upf.x v.5.0.2
     Using radial grid of  551 points,  3 beta functions with: 
                l(1) =   0
                l(2) =   2
                l(3) =   3

     PseudoPot. # 2 for Sn read from file:
     ./Sn.pbe-mt_fhi.UPF
     MD5 check sum: c8229872f1b50076eeaf5282003891c9
     Pseudo is Norm-conserving, Zval =  4.0
     Generated using FHI98PP, converted with fhi2upf.x v.5.0.2
     Using radial grid of  547 points,  3 beta functions with: 
                l(1) =   1
                l(2) =   2
                l(3) =   3

     PseudoPot. # 3 for  I read from file:
     ./I.pbe-mt_fhi.UPF
     MD5 check sum: 3c90a314e8351593fb628bbc7e3f7947
     Pseudo is Norm-conserving, Zval =  7.0
     Generated using FHI98PP, converted with fhi2upf.x v.5.0.2
     Using radial grid of  551 points,  3 beta functions with: 
                l(1) =   1
                l(2) =   2
                l(3) =   3

     atomic species   valence    mass     pseudopotential
        Cs             1.00   132.90500     Cs( 1.00)
        Sn             4.00   118.71000     Sn( 1.00)
        I              7.00   126.90400      I( 1.00)

     48 Sym. Ops., with inversion, found



   Cartesian axes

     site n.     atom                  positions (alat units)
         1           Cs  tau(   1) = (   0.5000000   0.5000000   0.5000000  )
         2           Sn  tau(   2) = (   0.0000000   0.0000000   0.0000000  )
         3           I   tau(   3) = (   0.0000000   0.0000000   0.5000000  )
         4           I   tau(   4) = (   0.0000000   0.5000000   0.0000000  )
         5           I   tau(   5) = (   0.5000000   0.0000000   0.0000000  )

     number of k points=     1
                       cart. coord. in units 2pi/alat
        k(    1) = (   0.0000000   0.0000000   0.1250000), wk =   2.0000000

     Dense  grid:   156795 G-vectors     FFT dimensions: (  72,  72,  72)

     Largest allocated arrays     est. size (Mb)     dimensions
        Kohn-Sham Wavefunctions        25.21 Mb     (     822, 2010)
        NL pseudopotentials             0.92 Mb     (     822,   73)
        Each V/rho on FFT grid          0.24 Mb     (   15552)
        Each G-vector array             0.05 Mb     (    6532)
        G-vector shells                 0.01 Mb     (     859)
     Largest temporary arrays     est. size (Mb)     dimensions
        Each subspace H/S matrix        6.85 Mb     (     670,  670)
        Each <psi_i|beta_j> matrix      2.24 Mb     (      73, 2010)

     The potential is recalculated from file :
     ./CsSnI3.save/charge-density.dat

     Starting wfc are random

     Band Structure Calculation
     CG style diagonalization
     c_bands: 15 eigenvalues not converged

     ethr =  3.85E-13,  avg # of iterations = 64.1

     total cpu time spent up to now is      882.8 secs

     End of band structure calculation

          k = 0.0000 0.0000 0.1250 ( 19613 PWs)   bands (ev):

   -10.8144 -10.1665 -10.1444  -4.0248  -2.2516  -2.2516  -1.9309   0.0750
     0.0750   0.0798   0.2033   0.2033   0.2156   4.7488   5.6524   5.7016
     5.9519   6.0303   6.0303   6.4771   7.0382   7.0382   8.0863   8.4433
     8.4433  10.0684  10.3295  10.3295  10.6008  10.6050  11.3139  11.7845
    12.0620  12.8123  12.8537  12.8537  13.2632  13.2640  13.2640  13.5676
    13.5978  13.8724  13.8724  14.5749  14.6142  14.6887  14.6887  14.8844
    15.9845  16.1596  16.1596  16.2939  16.4402  16.5493  16.5792  16.5792
    17.9782  18.0315  18.2285  18.4987  18.4987  18.5334  18.7457  18.7457
    19.2196  19.9297  20.0069  20.0069  20.1416  20.2314  20.3551  22.0227
    22.0227  22.4450  22.5264  22.5264  22.8754  23.0088  23.1904  23.4173
    23.4173  23.4905  23.4905  23.8270  23.9375  23.9375  24.7277  24.8262
    24.8262  24.8320  25.6183  25.6183  25.7514  25.9206  26.0396  26.8021
    26.8021  27.6620  27.9143  28.3058  28.5192  28.5475  28.5475  28.8074
    28.8074  28.8208  29.1888  29.1888  29.3218  29.3328  29.8378  29.8937
    30.1927  30.3614  30.4400  30.8211  30.8211  31.3309  31.3672  31.3672
    31.5974  32.2272  32.2272  32.2745  32.4757  32.9093  32.9412  32.9412
    33.1486  33.3503  33.3503  33.7257  33.9198  34.0886  34.3320  34.3354
    34.3354  34.4061  34.4061  34.8871  35.0217  35.5869  35.9300  35.9300
    36.1059  36.2420  36.2420  36.2612  36.3088  36.6089  36.7047  36.7047
    37.4830  38.0860  38.0860  38.3251  38.4032  38.8279  38.8279  38.9578
    39.0304  39.4322  39.4322  39.5177  39.5562  39.8562  39.8562  40.2699
    40.3541  40.5031  40.5611  40.7563  40.7563  41.3094  41.4597  41.6569
    42.1689  42.1689  42.5721  42.5721  42.7923  42.7923  43.0045  43.0484
    43.3617  43.8034  43.8034  43.9457  44.1494  44.6878  44.7060  44.7060
    44.9272  44.9272  44.9516  45.2930  45.3198  45.6105  45.6105  45.9574
    46.1070  46.2215  46.2215  46.7003  46.8867  47.0907  47.0907  47.1445
    47.1556  47.7431  47.8983  47.8983  48.0319  48.4525  48.7212  49.2774
    49.2774  49.7837  49.8297  49.8297  49.9626  49.9626  50.4377  50.5459
    50.7139  50.7139  50.7787  51.0928  51.2055  51.2262  51.2872  51.5994
    51.8303  51.8303  51.9120  51.9120  52.2418  52.2418  52.3828  52.5422
    52.6183  53.0631  53.4842  53.4842  53.5178  53.5178  53.7540  53.7744
    53.9981  53.9981  54.1033  54.2370  54.2837  54.2837  54.7536  54.9869
    55.2199  55.6223  55.6223  55.7680  55.8723  56.0080  56.5692  56.6336
    56.7358  56.7358  56.9988  57.4545  57.4545  57.8052  57.8052  57.9086
    58.3306  58.4611  58.5074  58.5074  58.6370  58.9166  59.2134  60.4684
    60.5912  60.7902  60.7902  61.0871  61.0871  61.1295  61.3023  61.8471
    61.9104  62.0286  62.0344  62.0344  62.1371  62.1371  62.3231  62.3818
    62.8455  63.0888  63.0888  63.4366  63.4366  63.4889  63.7286  63.7648
    63.9943  64.0440  64.1143  64.1143  64.4129  64.4129  64.4674  64.9444
    64.9444  65.1659  65.1922  65.2953  65.6474  65.9056  65.9720  65.9720
    66.2348  66.2348  66.5830  66.5830  66.6568  67.0371  67.0371  67.3596
    67.6684  67.6994  67.6996  67.6996  67.9508  68.1601  68.2302  68.4131
    68.4131  68.5032  68.6528  68.6528  68.9421  69.2418  69.3584  69.3584
    69.4976  69.4976  69.8125  69.8454  69.8762  69.9729  70.4084  70.5463
    70.5463  70.7144  70.7144  70.8496  70.9213  71.2495  71.3612  71.3612
    71.4130  71.4199  71.4199  71.5100  71.5788  72.0335  72.0335  72.0804
    72.1222  72.1831  72.2545  72.4631  72.4631  72.6213  72.9114  72.9114
    73.4501  73.4501  73.4783  73.8108  73.9034  74.0254  74.1432  74.2591
    74.6103  74.7437  74.9432  74.9432  75.1104  75.1104  75.1619  75.1786
    75.7114  75.7375  75.8921  75.8921  76.4292  76.6297  76.6297  76.9653
    77.2197  77.2234  77.2234  77.3632  77.5802  77.7273  77.7273  78.2099
    78.3985  78.3985  78.4849  78.5020  78.5223  78.5223  78.6936  79.0204
    79.0375  79.0992  79.0992  79.5622  79.5622  79.7438  79.7438  79.9533
    80.0963  80.4040  80.4040  80.7175  80.7608  80.9073  81.0409  81.0705
    81.2983  81.2983  81.3616  81.3663  81.4926  81.4926  81.7635  81.7644
    82.2069  82.2415  82.2415  82.6435  82.6435  82.7260  82.8346  83.1926
    83.3192  83.6119  83.6119  83.7143  83.7236  83.9128  83.9479  84.0607
    84.0607  84.4823  84.4823  84.7612  84.7869  84.7869  84.7975  85.0434
    85.0434  85.2166  85.3281  85.4842  85.4842  85.8209  85.9919  86.5267
    86.5267  86.6540  86.8268  87.2818  87.2818  87.3840  87.7410  87.7410
    88.0566  88.2656  88.5298  88.6855  88.6855  88.9988  89.2019  89.2019
    89.2347  89.3106  89.4799  90.0294  90.0647  90.0647  90.0872  90.1812
    90.2747  90.2747  90.8107  91.0679  91.2166  91.2929  91.2929  91.4437
    91.9306  92.1066  92.1066  92.4448  92.4597  92.6240  92.6685  92.6685
    93.5742  93.5749  93.6115  93.6157  93.6157  94.1698  94.4271  94.5190
    94.5190  94.8965  94.8965  95.1197  95.1252  95.1252  95.1774  95.4458
    95.4543  95.9852  95.9852  95.9979  96.0051  96.1981  96.4124  96.4876
    96.6138  96.6138  96.8271  96.8271  96.8350  97.1611  97.2226  97.2226
    97.3199  97.3939  97.4319  97.4673  97.4673  97.6323  97.6323  97.7952
    97.8055  98.1267  98.2272  98.2272  98.2306  98.6220  98.7052  98.7052
    98.7058  99.0733  99.0733  99.2399  99.2609  99.4941  99.4941  99.5768
    99.6919  99.7418  99.7418  99.7503  99.9389 100.0867 100.5407 100.5626
   100.6619 100.6619 100.7618 100.8401 100.8583 100.8583 101.1498 101.1498
   101.5634 101.5864 101.6006 101.6006 101.8502 102.0444 102.0444 102.1377
   102.3431 102.5286 102.5564 102.6717 102.6717 102.8684 102.8684 102.9755
   103.0454 103.0454 103.2132 103.2396 103.5306 103.5543 103.7365 103.8934
   103.8934 103.9234 103.9862 104.0605 104.0605 104.3275 104.3275 104.4801
   104.6280 104.7348 104.7348 104.9320 104.9479 104.9479 105.1079 105.2298
   105.4089 105.6917 105.7131 105.7131 106.2116 106.2116 106.2836 106.2932
   106.3558 106.7661 106.9572 106.9572 107.0606 107.1431 107.1587 107.1587
   107.3031 107.4580 107.4580 107.4874 107.6818 107.8003 107.9406 107.9406
   108.0932 108.0932 108.3896 108.3896 108.7769 108.7929 108.8035 109.0137
   109.0137 109.1075 109.1509 109.2454 109.4926 109.7917 109.7931 109.9449
   109.9449 110.0961 110.2305 110.3040 110.3040 110.3956 110.5034 110.5034
   110.7679 110.8781 111.4029 111.4029 111.5711 111.5711 111.6122 111.7215
   111.9316 111.9316 111.9566 112.0757 112.0898 112.4428 112.4428 112.8049
   112.8465 112.8970 113.0877 113.0877 113.1414 113.4586 113.4586 113.5909
   113.7799 113.7861 113.7861 113.9825 114.0663 114.0663 114.1477 114.1858
   114.2152 114.4268 114.4268 114.4995 114.5695 114.8155 114.8155 114.8247
   114.8779 115.1118 115.3796 115.5162 115.6754 115.6754 115.8682 115.8682
   116.0490 116.2301 116.2301 116.4819 116.5802 116.5802 116.6243 116.7122
   116.9027 116.9451 117.0659 117.0659 117.4702 117.4723 117.4723 117.5041
   117.8414 118.0595 118.1516 118.2832 118.7138 118.7138 118.8352 118.8633
   118.8694 119.2151 119.2151 119.3976 119.3976 119.5868 119.6860 119.9186
   119.9186 120.1391 120.1391 120.1532 120.3965 120.8466 121.2518 121.3293
   121.3293 121.4615 121.9040 121.9040 122.1797 122.1903 122.2002 122.2002
   122.2826 122.6256 122.8695 122.8721 122.9387 122.9387 123.0909 123.3053
   123.9340 123.9340 124.0524 124.4028 124.5083 124.5993 124.5993 124.7384
   124.7384 125.0936 125.0936 125.4798 125.8696 125.9832 125.9832 126.1019
   126.1936 126.3042 126.3042 126.3926 126.4842 126.7037 126.7037 126.7118
   126.7601 126.7601 127.1393 127.1965 127.5042 127.5145 127.5145 127.5344
   127.5578 127.5578 127.8013 127.8033 127.8875 128.3212 128.3212 128.3231
   128.3249 128.3659 128.7955 128.8335 128.8335 128.9812 129.0958 129.1601
   129.3997 129.4711 129.5384 129.5384 129.7117 129.8554 129.8554 130.2643
   130.2814 130.2818 130.2818 130.3930 130.3930 130.4774 130.6230 130.8420
   130.8420 131.1324 131.1324 131.2056 131.3432 131.4059 131.4527 131.6489
   131.6489 131.9300 131.9300 132.2409 132.2602 132.2740 132.2884 132.3647
   132.4102 132.4102 132.5485 132.9473 133.0760 133.0912 133.0912 133.2395
   133.3091 133.3091 133.3683 133.5077 133.5077 134.0814 134.0814 134.1160
   134.1381 134.3801 134.4052 134.4201 134.4201 134.5187 134.7457 134.7457
   134.8950 134.9309 134.9360 134.9671 135.0199 135.0199 135.0898 135.1823
   135.1823 135.3925 135.3925 135.4612 135.5984 135.7319 135.7466 135.7466
   136.1758 136.2572 136.3597 136.3597 136.5429 136.7830 136.9431 136.9431
   137.0503 137.1064 137.1064 137.2062 137.2116 137.3272 137.3325 137.5518
   137.5518 137.7142 137.8155 137.8197 137.8197 137.8354 138.1368 138.4502
   138.4502 138.7505 138.7505 138.9192 138.9333 139.2768 139.2820 139.5372
   139.5769 139.5769 139.7174 139.9792 139.9850 140.0552 140.0552 140.1692
   140.1692 140.2552 140.5441 140.6194 140.6595 140.6595 140.6811 140.7728
   140.7728 140.8308 141.0941 141.2037 141.2385 141.2385 141.4601 141.6271
   141.7359 141.7411 141.7411 142.0069 142.0167 142.0167 142.0381 142.4896
   142.5192 142.5192 142.6070 142.6188 142.9906 143.1551 143.1551 143.6795
   143.6795 143.7396 143.8112 144.0156 144.1639 144.1639 144.3000 144.3761
   144.6102 144.6102 144.7912 145.0787 145.1510 145.1682 145.1682 145.2930
   145.2930 145.4130 145.5561 145.6964 145.6964 145.8849 145.8912 145.8912
   145.9705 146.0645 146.2160 146.2160 146.2569 146.3876 146.6253 146.9819
   147.0284 147.0284 147.1586 147.1586 147.4815 147.5874 147.8805 147.9234
   147.9234 147.9718 148.0699 148.3152 148.3152 148.7468 148.8840 149.0289
   149.0593 149.0593 149.2477 149.3471 149.3498 149.3498 149.5204 149.5204
   149.5853 149.7458 150.1902 150.1947 150.1947 150.2655 150.4704 150.4854
   150.8559 150.9201 150.9995 151.0026 151.0026 151.1008 151.1008 151.3006
   151.3006 151.6374 151.6374 151.7575 151.9710 152.0273 152.0600 152.0904
   152.1183 152.1183 152.1957 152.4081 152.4081 152.5669 152.5697 152.7754
   152.7754 153.0628 153.0682 153.2193 153.5876 153.5876 153.8253 153.8761
   153.8791 153.8791 154.2958 154.5350 154.5350 154.5399 154.6578 154.6991
   154.8700 154.8772 154.8772 155.0921 155.0921 155.2052 155.3486 155.3981
   155.5634 155.7465 155.9702 155.9819 155.9819 155.9838 156.0552 156.0552
   156.1283 156.1892 156.1892 156.6970 156.6970 156.7090 156.9531 157.0912
   157.1324 157.1928 157.2345 157.2345 157.2587 157.2587 157.3426 157.6303
   157.6303 157.6680 157.7180 157.7180 157.7931 157.8563 157.9625 157.9937
   158.0427 158.5206 158.5791 158.6141 158.6141 158.6778 158.6778 158.7895
   158.7947 158.9044 158.9044 158.9980 159.0230 159.0529 159.0529 159.0564
   159.3142 159.3729 159.6522 159.6522 159.6604 159.6811 159.6811 159.9694
   160.0589 160.1458 160.1458 160.4235 160.4235 160.4628 160.5765 160.6222
   160.6763 160.6763 160.7296 160.7413 160.9927 160.9927 161.1039 161.1643
   161.2540 161.3376 161.4414 161.5266 161.5266 161.5857 161.6728 161.6728
   161.8018 161.9440 161.9956 161.9956 162.0386 162.1724 162.3062 162.3062
   162.8476 162.8476 163.1551 163.1551 163.3154 163.3216 163.3257 163.3730
   163.4105 163.4105 163.5115 163.5281 163.5281 163.6890 163.7929 163.8174
   163.9647 164.1650 164.1650 164.1834 164.3078 164.3262 164.4746 164.4746
   164.5279 164.7300 164.7300 164.8576 164.9965 165.4831 165.6695 165.6695
   165.8098 165.8098 165.8629 165.8764 166.0191 166.0191 166.2711 166.2711
   166.3178 166.3385 166.5562 166.6687 166.7231 166.7231 166.7859 167.0124
   167.1928 167.2990 167.3346 167.3346 167.5503 167.7511 167.7511 167.8147
   167.8279 167.8279 168.0260 168.1188 168.1425 168.1896 168.1896 168.2392
   168.2916 168.3213 168.3213 168.5329 168.5329 168.5711 168.7643 168.9211
   169.1727 169.1873 169.2483 169.3468 169.3468 169.4213 169.5664 169.5664
   169.9071 169.9071 170.2871 170.3689 170.4008 170.4008 170.4360 170.5730
   170.5730 170.6042 170.8031 170.9615 170.9615 170.9653 171.0448 171.0759
   171.4162 171.4748 171.4748 171.5265 171.5265 171.5709 171.8925 172.2636
   172.2636 172.2926 172.3719 172.4275 172.4275 172.4986 172.5880 173.0598
   173.1259 173.2936 173.3357 173.5001 173.5001 173.8745 173.9175 173.9175
   173.9266 174.2268 174.2374 174.2374 174.5631 174.5631 174.6483 174.8248
   174.8248 174.9907 175.1028 175.1111 175.4295 175.4447 175.4447 175.7724
   175.8498 175.8498 176.0508 176.2434 176.2520 176.3297 176.4245 176.4245
   176.5881 176.5881 176.6181 176.7576 176.7660 176.8167 176.8167 177.0888
   177.1138 177.1697 177.1697 177.2519 177.2585 177.4501 177.6350 177.6350
   177.8302 177.8741 177.8741 178.0154 178.0154 178.3163 178.5579 178.5946
   178.5946 178.7768 178.9564 179.1115 179.4840 179.5826 179.5826 179.6980
   179.7089 180.0726 180.1396 180.1875 180.1875 180.2591 180.3646 180.3646
   180.3946 180.6292 180.6361 180.6361 180.7598 181.2086 181.2086 181.2613
   181.4138 181.6560 181.9821 182.1065 182.1065 182.3401 182.3401 182.4621
   182.4621 182.6542 182.6801 183.0428 183.1169 183.1169 183.4516 183.5169
   183.9997 183.9997 184.0104 184.2551 184.2842 184.2842 184.3042 184.6601
   184.9109 184.9109 185.0455 185.3797 185.3797 185.4978 185.7912 185.8762
   186.1867 186.2026 186.2026 186.2610 186.2789 186.2789 186.6894 186.6894
   186.7035 186.8836 186.8945 187.1638 187.2553 187.2553 187.3394 187.4443
   187.7246 187.8447 188.0002 188.0101 188.1117 188.1117 188.1222 188.2670
   188.2670 188.2799 188.3211 188.3211 188.3682 188.4837 188.4837 188.7905
   188.9044 188.9044 188.9187 188.9379 188.9685 189.1013 189.1013 189.2160
   189.2215 189.2546 189.2546 189.3874 189.4379 189.5239 189.5239 189.5687
   189.6608 189.6608 189.7005 190.0269 190.1546 190.1546 190.3264 190.5278
   190.6410 190.6410 190.6642 190.6656 190.8567 190.8689 190.8819 191.0885
   191.1386 191.1386 191.1410 191.1410 191.3980 191.3980 191.4469 191.6779
   191.8486 191.8486 192.0054 192.1380 192.1380 192.2319 192.2941 192.4404
   192.5030 192.5768 192.5768 192.7346 192.8479 192.8604 193.0280 193.0280
   193.1237 193.1955 193.3916 193.3916 193.6885 193.7459 193.7459 193.8974
   194.1222 194.1440 194.3195 194.3195 194.4090 194.6205 194.6494 194.9091
   194.9091 195.0376 195.0607 195.0607 195.1207 195.1270 195.3997 195.5885
   195.5885 195.6174 195.7159 195.8283 195.8283 195.8549 195.9068 195.9329
   195.9815 195.9815 196.1866 196.1866 196.1877 196.2145 196.3435 196.4782
   196.4782 196.5888 196.6689 196.6689 196.8691 196.8838 196.9501 196.9501
   197.0487 197.0487 197.0647 197.1058 197.1745 197.2540 197.2540 197.2688
   197.2688 197.2990 197.4657 197.5855 197.7950 197.8535 197.8535 197.9530
   198.0113 198.0756 198.0756 198.1447 198.1599 198.1733 198.3635 198.3791
   198.3836 198.3836 198.6269 198.6269 198.7171 199.0452 199.0452 199.1140
   199.1511 199.3265 199.3265 199.9633 199.9782 200.0377 200.0377 200.0474
   200.1670 200.1670 200.2206 200.2526 200.2796 200.3359 200.4507 200.4510
   200.4510 200.5914 200.6009 200.7653 200.7978 200.8312 200.8312 200.9627
   200.9627 201.0192 201.0563 201.0563 201.3120 201.3650 201.6770 201.6770
   201.8094 201.9180 201.9180 201.9221 201.9512 201.9512 202.1150 202.1413
   202.2039 202.5274 202.5278 202.5278 202.7509 202.8201 202.8529 202.8529
   202.9137 203.0011 203.0011 203.0550 203.1258 203.2881 203.2881 203.4243
   203.5586 203.5586 203.5875 203.6748 203.6793 203.6873 203.6873 203.7645
   204.1073 204.1132 204.1132 204.1656 204.1656 204.2181 204.3065 204.4420
   204.5125 204.7077 204.7077 204.7631 204.9415 204.9415 205.0282 205.0797
   205.4792 205.6072 205.7899 205.7899 205.8030 205.8030 205.8293 205.9742
   206.0626 206.0871 206.0871 206.1260 206.1372 206.5799 206.6362 206.6362
   206.6769 206.6834 206.8932 206.9507 206.9865 206.9865 207.2931 207.4626
   207.4626 207.5165 207.6164 207.6164 207.6767 207.9544 207.9544 208.0422
   208.0422 208.0783 208.2122 208.2824 208.3221 208.6080 208.6080 208.6995
   208.9120 208.9785 209.0919 209.0919 209.1073 209.1443 209.3483 209.3483
   209.4441 209.5015 209.5015 209.5341 209.6004 209.6796 209.6917 209.6917
   209.8040 209.8040 209.8636 209.9772 210.0174 210.0251 210.0251 210.1436
   210.1692 210.2674 210.2674 210.4582 210.4805 210.5165 210.5222 210.6700
   210.7120 210.7120 210.8044 210.8370 210.8662 210.8662 211.2641 211.2641
   211.2676 211.3055 211.5525 211.5525 211.6528 211.7122 211.8108 211.8838
   211.8838 211.9847 212.1219 212.1646 212.1646 212.3656 212.5479 212.5975
   212.6322 212.6322 212.6670 212.7759 212.7864 212.7864 212.9351 213.0525
   213.0525 213.2052 213.2260 213.3059 213.3059 213.4204 213.4358 213.5114
   213.9309 213.9309 214.0304 214.0871 214.1373 214.1373 214.3113 214.3113
   214.3719 214.3759 214.7018 214.8012 214.8012 214.9745 215.0007 215.1480
   215.2451 215.2451 215.2759 215.3967 215.4702 215.4831 215.5658 215.5658
   216.1843 216.1843 216.2596 216.3332 216.4628 216.4628 216.6233 216.8660
   216.9620 216.9620 217.0894 217.0894 217.2986 217.2986 217.5049 217.5768
   217.6482 217.6482 217.6548 217.7169 217.7596 217.8397 217.8397 218.0652
   218.2093 218.3506 218.3506 218.7976 218.8141 218.8929 218.8929 218.8992
   219.2591 219.4120 219.4120 219.5257 220.0419 220.0766 220.1020 220.1452
   220.1535 220.1535 220.1818 220.1818 220.4256 220.5053 220.6412 220.8608
   220.8608 221.2532 221.3324 221.3324 221.5608 221.6380 221.6682 221.6682
   221.8737 221.8790 221.8790 221.9061 221.9453 221.9648 222.1101 222.1101
   222.2225 222.2998 222.3626 222.3626 222.4167 222.6262 222.7274 222.7660
   222.7797 222.7797 222.8062 222.9237 222.9414 223.2127 223.2709 223.2709
   223.4096 223.4096 223.6123 223.6718 223.6718 223.8808 224.0771 224.2460
   224.2655 224.2722 224.2722 224.4370 224.4370 224.5396 224.5396 224.5652
   224.7920 224.8982 224.8982 224.9106 225.1171 225.2592 225.2771 225.3650
   225.3650 226.1159 226.1159 226.1706 226.5340 226.6593 226.6869 226.8160
   226.8160 226.8245 227.0780 227.0780 227.1369 227.3243 227.3243 227.3270
   227.3903 227.4124 227.4174 227.4744 227.4744 227.5378 227.9767 228.0621
   228.0621 228.2655 228.2655 228.4170 228.6526 228.6526 228.7718 228.8363
   228.9569 229.0002 229.1310 229.1442 229.1442 229.1751 229.4941 229.5064
   229.5064 229.6109 229.7491 229.7670 229.7670 230.1076 230.2282 230.5245
   230.5245 230.5920 230.5987 230.7119 230.8405 230.8405 230.9051 231.0367
   231.0367 231.4169 231.4757 231.6144 231.6144 231.6917 231.8175 231.8175
   231.8659 231.9024 232.0012 232.0013 232.0013 232.1083 232.2431 232.3170
   232.3170 232.3650 232.4527 232.4577 232.5217 232.5255 232.5255 232.7404
   232.8086 232.8086 232.8277 232.8277 232.9051 232.9185 233.0324 233.0386
   233.1855 233.2676 233.2676 233.3452 233.4697 233.4697 233.7205 233.8707
   233.9310 234.0211 234.0211 234.0258 234.1483 234.1795 234.1795 234.5824
   234.5824 234.9528 234.9890 235.1456 235.1456 235.3265 235.3721 235.4598
   235.4598 235.4879 235.5869 235.5869 235.6781 235.8329 235.9243 235.9344
   235.9713 236.0139 236.0139 236.0352 236.1560 236.1560 236.2755 236.4801
   236.5162 236.5163

     Writing output data file CsSnI3.save
 
     init_run     :      0.17s CPU      0.22s WALL (       1 calls)
     electrons    :    878.02s CPU    882.45s WALL (       1 calls)

     Called by init_run:
     wfcinit      :      0.00s CPU      0.03s WALL (       1 calls)
     potinit      :      0.03s CPU      0.03s WALL (       1 calls)

     Called by electrons:
     c_bands      :    878.01s CPU    882.40s WALL (       1 calls)
     v_of_rho     :      0.01s CPU      0.01s WALL (       1 calls)

     Called by c_bands:
     init_us_2    :      0.00s CPU      0.00s WALL (       1 calls)
     ccgdiagg     :    824.79s CPU    827.68s WALL (       6 calls)
     wfcrot       :     52.75s CPU     54.19s WALL (       6 calls)

     Called by sum_band:

     Called by *cgdiagg:
     h_psi        :    103.40s CPU    105.03s WALL (  114529 calls)
     cdiaghg      :     33.18s CPU     33.92s WALL (       6 calls)

     Called by h_psi:
     add_vuspsi   :      5.42s CPU      5.42s WALL (  114529 calls)
     h_1psi       :     97.38s CPU     99.33s WALL (  114523 calls)

     General routines
     calbec       :     31.65s CPU     32.24s WALL (  229052 calls)
     fft          :      0.01s CPU      0.01s WALL (      11 calls)
     fftw         :     62.61s CPU     63.35s WALL (  253166 calls)
     davcio       :      0.00s CPU      0.06s WALL (       2 calls)
 
     Parallel routines
     fft_scatter  :     26.29s CPU     26.61s WALL (  253177 calls)
 
     PWSCF        : 14m42.72s CPU    14m48.39s WALL

 
   This run was terminated on:   7:11:49  14Apr2017            

=------------------------------------------------------------------------------=
   JOB DONE.
=------------------------------------------------------------------------------=

     Program PWSCF v.5.3.0 (svn rev. 11974) starts on 14Apr2017 at  1:25:49 

     This program is part of the open-source Quantum ESPRESSO suite
     for quantum simulation of materials; please cite
         "P. Giannozzi et al., J. Phys.:Condens. Matter 21 395502 (2009);
          URL http://www.quantum-espresso.org", 
     in publications or presentations arising from this work. More details at
     http://www.quantum-espresso.org/quote

     Parallel version (MPI), running on    24 processors
     R & G space division:  proc/nbgrp/npool/nimage =      24
     Reading input from ./in

     Current dimensions of program PWSCF are:
     Max number of different atomic species (ntypx) = 10
     Max number of k-points (npk) =  40000
     Max angular momentum in pseudopotentials (lmaxx) =  3

     Atomic positions and unit cell read from directory:
     ./CsSnI3.save/
 
               file Cs.pbe-mt_fhi.UPF: wavefunction(s)  5d 4f renormalized
               file Sn.pbe-mt_fhi.UPF: wavefunction(s)  5d 4f renormalized
               file I.pbe-mt_fhi.UPF: wavefunction(s)  5d 4f renormalized

     Subspace diagonalization in iterative solution of the eigenvalue problem:
     one sub-group per k-point group (pool) will be used
     scalapack distributed-memory algorithm (size of sub-group:  3*  3 procs)

 
     Parallelization info
     --------------------
     sticks:   dense  smooth     PW     G-vecs:    dense   smooth      PW
     Min         146     146     37                 6530     6530     845
     Max         147     147     38                 6537     6537     851
     Sum        3521    3521    889               156795   156795   20377
 


     bravais-lattice index     =            0
     lattice parameter (alat)  =      11.7522  a.u.
     unit-cell volume          =    1623.1458 (a.u.)^3
     number of atoms/cell      =            5
     number of atomic types    =            3
     number of electrons       =        26.00
     number of Kohn-Sham states=         2010
     kinetic-energy cutoff     =      80.0000  Ry
     charge density cutoff     =     320.0000  Ry
     Exchange-correlation      = PBE ( 1  4  3  4 0 0)

     celldm(1)=  11.752200  celldm(2)=   0.000000  celldm(3)=   0.000000
     celldm(4)=   0.000000  celldm(5)=   0.000000  celldm(6)=   0.000000

     crystal axes: (cart. coord. in units of alat)
               a(1) = (   1.000000   0.000000   0.000000 )  
               a(2) = (   0.000000   1.000000   0.000000 )  
               a(3) = (   0.000000   0.000000   1.000000 )  

     reciprocal axes: (cart. coord. in units 2 pi/alat)
               b(1) = (  1.000000  0.000000  0.000000 )  
               b(2) = (  0.000000  1.000000  0.000000 )  
               b(3) = (  0.000000  0.000000  1.000000 )  


     PseudoPot. # 1 for Cs read from file:
     ./Cs.pbe-mt_fhi.UPF
     MD5 check sum: cbf02b8bb436d1f1f7a480ef9056bbdc
     Pseudo is Norm-conserving + core correction, Zval =  1.0
     Generated using FHI98PP, converted with fhi2upf.x v.5.0.2
     Using radial grid of  551 points,  3 beta functions with: 
                l(1) =   0
                l(2) =   2
                l(3) =   3

     PseudoPot. # 2 for Sn read from file:
     ./Sn.pbe-mt_fhi.UPF
     MD5 check sum: c8229872f1b50076eeaf5282003891c9
     Pseudo is Norm-conserving, Zval =  4.0
     Generated using FHI98PP, converted with fhi2upf.x v.5.0.2
     Using radial grid of  547 points,  3 beta functions with: 
                l(1) =   1
                l(2) =   2
                l(3) =   3

     PseudoPot. # 3 for  I read from file:
     ./I.pbe-mt_fhi.UPF
     MD5 check sum: 3c90a314e8351593fb628bbc7e3f7947
     Pseudo is Norm-conserving, Zval =  7.0
     Generated using FHI98PP, converted with fhi2upf.x v.5.0.2
     Using radial grid of  551 points,  3 beta functions with: 
                l(1) =   1
                l(2) =   2
                l(3) =   3

     atomic species   valence    mass     pseudopotential
        Cs             1.00   132.90500     Cs( 1.00)
        Sn             4.00   118.71000     Sn( 1.00)
        I              7.00   126.90400      I( 1.00)

     48 Sym. Ops., with inversion, found



   Cartesian axes

     site n.     atom                  positions (alat units)
         1           Cs  tau(   1) = (   0.5000000   0.5000000   0.5000000  )
         2           Sn  tau(   2) = (   0.0000000   0.0000000   0.0000000  )
         3           I   tau(   3) = (   0.0000000   0.0000000   0.5000000  )
         4           I   tau(   4) = (   0.0000000   0.5000000   0.0000000  )
         5           I   tau(   5) = (   0.5000000   0.0000000   0.0000000  )

     number of k points=     1
                       cart. coord. in units 2pi/alat
        k(    1) = (   0.0000000   0.0000000   0.2500000), wk =   2.0000000

     Dense  grid:   156795 G-vectors     FFT dimensions: (  72,  72,  72)

     Largest allocated arrays     est. size (Mb)     dimensions
        Kohn-Sham Wavefunctions        25.09 Mb     (     818, 2010)
        NL pseudopotentials             0.91 Mb     (     818,   73)
        Each V/rho on FFT grid          0.24 Mb     (   15552)
        Each G-vector array             0.05 Mb     (    6532)
        G-vector shells                 0.01 Mb     (     851)
     Largest temporary arrays     est. size (Mb)     dimensions
        Each subspace H/S matrix        6.85 Mb     (     670,  670)
        Each <psi_i|beta_j> matrix      2.24 Mb     (      73, 2010)

     The potential is recalculated from file :
     ./CsSnI3.save/charge-density.dat

     Starting wfc are random

     Band Structure Calculation
     CG style diagonalization
     c_bands:  8 eigenvalues not converged

     ethr =  3.85E-13,  avg # of iterations = 63.7

     total cpu time spent up to now is      875.6 secs

     End of band structure calculation

          k = 0.0000 0.0000 0.2500 ( 19641 PWs)   bands (ev):

   -10.7561 -10.2267 -10.1435  -4.3640  -2.2068  -2.2068  -1.2702  -0.0163
    -0.0163   0.0240   0.1697   0.1697   0.2512   5.1529   5.2732   5.8918
     6.0606   6.1065   6.3719   6.3719   7.0119   7.0119   7.6338   8.7484
     8.7484   9.1543   9.7888   9.7888  10.1008  10.6951  11.1364  12.0167
    12.1161  12.1801  12.1801  12.3406  13.2280  13.2280  13.4166  13.6470
    13.9053  13.9053  14.5854  14.6758  14.7541  15.1146  15.1146  15.4935
    16.1935  16.4350  16.4350  16.4780  16.8863  17.0267  17.0267  17.0927
    17.4579  17.6572  17.8934  17.8934  18.0796  18.4750  18.4750  18.4953
    19.6258  20.1354  20.7467  20.9617  21.1295  21.1295  21.4690  21.4690
    21.5938  21.6267  21.7851  22.0110  22.0110  22.7094  23.1479  23.1984
    23.1984  23.7559  23.7559  23.7690  23.8348  24.3796  24.4641  24.4641
    24.7256  24.7256  25.0933  25.5693  25.5693  25.9647  26.6669  27.0701
    27.8698  27.8698  28.0049  28.1966  28.2180  28.2180  28.4246  28.6419
    28.6419  28.7748  28.9593  29.2701  29.3120  29.3809  29.6569  29.6569
    29.8328  30.2467  30.2467  30.7316  30.7504  30.8231  30.8231  30.8381
    31.4598  31.7413  31.8370  31.8370  32.8817  32.9196  32.9196  32.9854
    33.2945  33.2945  33.5738  33.6179  34.2530  34.2530  34.4609  34.4609
    34.5616  34.7652  34.8714  34.9482  35.4922  35.6396  35.6396  35.9877
    36.1363  36.3460  36.4582  36.4582  36.6172  36.8028  36.8028  36.9357
    37.4334  37.7717  37.7717  37.9631  37.9693  38.2153  38.8351  38.8351
    39.1777  39.5316  39.5495  39.5495  39.9135  39.9606  40.3865  40.3865
    40.8640  41.0236  41.0782  41.0782  41.2581  41.2634  41.4906  41.5751
    42.0362  42.0549  42.0549  42.2803  42.2803  42.7195  42.9961  42.9961
    43.1349  43.5489  44.0574  44.0574  44.2476  44.3340  44.5234  44.5234
    44.9017  45.1875  45.1875  45.4460  45.5456  45.6261  45.6261  46.1005
    46.2042  46.2042  46.4554  46.7279  47.0404  47.0404  47.1783  47.4048
    47.7738  47.7738  48.0125  48.4439  48.5755  48.6804  48.7487  48.8730
    48.8730  49.0823  49.3904  49.3904  49.4398  49.7247  49.9528  50.0771
    50.2416  50.2416  50.5940  50.6414  50.8614  50.8614  50.9344  51.2243
    51.2243  51.8147  51.8147  51.9221  52.2327  52.3106  52.3390  52.3390
    53.0005  53.1691  53.1691  53.4795  53.6828  54.0332  54.0332  54.0667
    54.2054  54.3301  54.5972  54.6813  54.6813  55.1974  55.1974  55.5020
    55.8909  55.9627  55.9950  55.9950  56.3015  56.6524  57.2278  57.4531
    57.7092  57.7092  57.9642  57.9642  58.0711  58.2687  58.6759  58.7232
    58.7232  58.7871  58.8085  58.8085  58.8324  59.3844  59.4902  59.5727
    59.5727  59.6033  60.0957  60.0957  60.3764  60.9366  61.0284  61.0284
    61.3791  61.5452  61.6478  61.6478  61.7182  61.7430  62.1197  62.2072
    62.2885  62.2885  62.3642  62.4607  62.4836  62.4836  62.9466  63.0687
    63.0687  63.1153  63.5364  63.8760  64.2171  64.2513  64.2513  64.5774
    64.5774  64.6105  64.9028  64.9667  65.0888  65.7819  65.7819  66.4140
    66.4694  66.4694  66.6567  66.6994  66.7388  66.7388  67.2645  67.4473
    67.4473  67.4527  67.6479  67.7640  67.9048  68.1232  68.1232  68.2439
    68.2439  68.9670  69.0859  69.0859  69.2038  69.2094  69.2272  69.2272
    69.2724  70.0555  70.0555  70.0768  70.1205  70.1414  70.1822  70.1822
    70.4317  70.6593  70.8997  70.8997  71.0012  71.0012  71.1334  71.1849
    71.3847  71.3847  71.5066  71.8029  71.8514  71.8538  72.1982  72.4581
    72.4581  72.5975  72.9617  73.0002  73.0131  73.0717  73.0717  73.4406
    73.4406  73.6626  73.8437  74.0027  74.1318  74.1318  74.3096  74.5953
    74.8565  74.8565  74.8719  74.9053  75.2063  75.4425  75.7164  75.8173
    75.8173  75.8739  75.8739  76.1164  76.6907  76.7091  76.9570  76.9570
    77.2570  77.2641  77.2641  77.2797  77.3929  77.5724  77.8569  77.8569
    78.2359  78.2359  78.4791  78.6037  78.6037  78.6753  78.8901  78.8901
    78.8968  79.2100  79.3533  79.3533  79.5750  79.6733  79.6733  79.8396
    80.1364  80.1786  80.2105  80.2105  80.3099  80.3433  80.5305  80.6000
    80.6000  81.0054  81.0845  81.4273  81.4273  81.5959  81.7426  81.7426
    82.0555  82.1035  82.9852  82.9852  83.0748  83.1253  83.2069  83.2854
    83.5895  83.5895  83.9815  84.0163  84.0163  84.1440  84.2753  84.2753
    84.7427  84.8896  85.1521  85.1521  85.4253  85.4999  85.5013  85.8525
    85.9231  85.9231  86.0453  86.2070  86.2070  86.3607  87.1702  87.3883
    87.7669  87.8138  87.8171  87.9260  87.9260  87.9422  88.2651  88.2833
    88.2833  88.6043  88.6043  88.6582  88.7248  88.7248  88.9398  89.0261
    89.1351  89.3460  89.3687  89.3687  89.5563  89.5563  89.7328  89.9425
    90.2182  90.2182  90.5545  90.8575  91.2048  91.2056  91.2056  91.4696
    91.6252  91.6252  91.8368  92.1431  92.2640  92.4695  92.4695  92.5043
    92.9197  92.9197  93.1072  93.1112  93.2995  93.3231  93.3231  93.4764
    93.6876  93.9856  93.9856  94.2046  94.3620  94.4886  94.4886  94.6956
    94.6956  94.9200  94.9563  95.0783  95.2490  95.7152  95.7152  95.7474
    96.0027  96.0027  96.0295  96.1658  96.2978  96.3050  96.3050  96.3953
    96.4956  96.5737  96.7210  96.8018  96.8639  97.1092  97.1092  97.6395
    97.7608  97.7608  97.8068  97.8068  98.0722  98.0722  98.0866  98.3525
    98.3525  98.8174  99.0309  99.0323  99.1352  99.2259  99.3036  99.3036
    99.4629  99.4873  99.8349  99.8349  99.9411 100.1544 100.3976 100.9253
   100.9253 100.9474 100.9474 101.1198 101.2103 101.2423 101.2642 101.6195
   101.6195 101.7482 101.9103 102.0700 102.0700 102.2834 102.2834 102.6118
   102.7392 102.7446 102.7446 102.8145 102.9522 103.1062 103.3195 103.4658
   103.4658 103.7342 103.7342 103.8020 103.9769 104.0198 104.0394 104.0394
   104.1751 104.3812 104.4167 104.4192 104.4192 104.4201 104.7302 104.9329
   105.0110 105.0110 105.3429 105.3555 105.3555 105.3900 105.4403 105.6316
   105.6316 105.9165 105.9165 106.1760 106.1917 106.2886 106.3929 106.3929
   106.4126 106.4821 106.4821 106.6736 106.8740 106.9211 106.9211 107.1135
   107.1135 107.1250 107.1515 107.3920 107.3920 107.4151 107.4745 107.7585
   107.8074 107.8313 107.9980 107.9980 108.2125 108.2860 108.2860 108.5539
   108.5782 108.7713 108.7713 108.9481 109.1396 109.2114 109.2862 109.2862
   109.8093 109.8093 109.8364 110.1382 110.4201 110.5356 110.6136 110.8713
   111.0794 111.1005 111.1005 111.1966 111.1966 111.6373 111.6373 111.6792
   111.7672 111.9172 112.0338 112.3228 112.3228 112.9137 112.9137 113.2998
   113.3306 113.5342 113.6660 113.6931 113.6931 113.9837 113.9837 114.1277
   114.3452 114.3683 114.3839 114.3839 114.3869 114.4885 115.0002 115.0002
   115.0907 115.2706 115.3381 115.3381 115.8223 115.8771 115.8771 115.9286
   115.9286 116.2740 116.2995 116.4044 116.7496 116.8576 116.8576 116.9333
   117.1009 117.1009 117.1813 117.4978 117.5235 117.6079 117.7096 117.7096
   117.7782 117.7782 117.9273 118.0019 118.1246 118.1260 118.1260 118.2537
   118.5864 118.6419 118.8955 118.8955 118.9527 118.9779 119.0531 119.0531
   119.0721 119.0721 119.1236 119.1665 119.4571 119.6949 119.7501 119.9916
   119.9916 120.0271 120.1401 120.4780 120.6208 120.6208 121.1018 121.2137
   121.2328 121.3943 121.4198 121.4596 121.4596 121.6493 121.6493 121.9228
   122.1192 122.1192 122.5747 122.6314 122.6314 122.8544 123.1455 123.3785
   123.4838 123.4838 123.8268 123.8268 124.0627 124.0836 124.0836 124.1500
   124.4256 124.4584 124.4703 124.4703 124.7435 124.7491 124.7895 124.7895
   124.9956 125.2216 125.3610 125.3610 125.3774 125.5365 125.5843 125.7213
   125.7213 125.7227 125.9652 125.9652 126.3452 126.3452 126.3566 126.4707
   127.0044 127.0044 127.1535 127.2161 127.2161 127.2198 127.2941 127.6282
   127.6305 127.8348 127.9312 127.9312 128.3102 128.3557 128.5718 128.8139
   128.8258 128.8258 128.9202 129.3177 129.4929 129.4929 129.5198 129.5510
   129.6950 129.6950 129.7995 129.9377 129.9377 130.3266 130.3752 130.4187
   130.7834 130.7834 131.0325 131.1114 131.1114 131.2758 131.2793 131.5995
   131.5995 131.7450 131.7650 131.8426 132.2669 132.2669 132.5250 132.5680
   132.5920 132.7727 132.7727 133.0507 133.0507 133.3012 133.3012 133.3339
   133.3956 133.6604 133.6873 133.6873 134.0159 134.1021 134.1021 134.2846
   134.3244 134.3830 134.3830 134.4765 134.7384 134.7384 134.8307 135.0158
   135.1063 135.1063 135.2436 135.5470 135.5537 135.6889 135.6889 135.7420
   135.8703 135.9626 135.9626 136.0504 136.0504 136.1647 136.1647 136.1867
   136.3138 136.5139 136.6590 136.8298 136.9570 136.9846 137.0463 137.0463
   137.2022 137.3437 137.3681 137.3681 137.3839 137.4782 137.5306 137.6618
   137.6618 137.9043 137.9812 137.9812 137.9994 138.3175 138.3633 138.3633
   138.7659 138.8332 138.8332 138.8907 138.9243 139.0583 139.2399 139.4731
   139.4731 139.5538 139.9829 139.9852 140.1300 140.1300 140.2307 140.3201
   140.3215 140.4596 140.5131 140.5131 140.5740 140.6534 140.8600 140.9136
   140.9136 140.9948 141.2825 141.3356 141.3356 141.6398 141.8874 141.8874
   142.5230 142.5230 142.6417 142.7105 142.7105 142.7504 142.7649 142.8465
   143.0394 143.0394 143.2864 143.4895 143.7747 143.7747 144.3427 144.3490
   144.5031 144.5031 144.6016 144.6996 144.6996 144.7739 144.7864 144.9446
   145.0261 145.0263 145.0263 145.1936 145.2715 145.2715 145.5192 145.6418
   145.6605 145.6605 145.7390 145.7724 145.8036 145.8036 146.1420 146.3176
   146.3176 146.4304 146.6297 146.7097 146.7202 146.7272 146.7272 146.8051
   146.8871 146.8871 147.1916 147.2819 147.4862 147.4862 147.5240 147.6791
   147.6791 148.0890 148.1803 148.4158 148.4158 148.5291 148.7062 148.7611
   148.7611 148.9167 148.9167 149.0335 149.1474 149.3696 149.3824 149.3824
   149.4239 149.4491 149.5901 149.6776 149.9664 150.2200 150.2460 150.2460
   150.3576 150.5419 150.5419 150.6355 150.6971 150.6971 150.7827 151.0292
   151.0292 151.0631 151.1544 151.2988 151.3157 151.3649 151.3649 151.4983
   151.5061 151.6475 151.7342 151.8167 151.8167 152.1825 152.1825 152.3598
   152.6342 152.8122 152.8122 152.8176 153.0243 153.0243 153.2114 153.4008
   153.4008 153.4449 153.5168 153.7007 153.7007 153.7859 153.8016 153.8016
   153.8048 153.8124 154.2608 154.3007 154.4642 154.4642 154.5001 154.8686
   154.9435 154.9435 155.0417 155.1894 155.2711 155.3777 155.3777 155.4261
   155.4756 155.6872 155.6872 155.8460 155.8460 155.9916 156.0314 156.1936
   156.1936 156.2059 156.4041 156.4961 156.4961 156.6019 156.8330 156.9299
   156.9460 156.9460 157.1663 157.1663 157.1997 157.2456 157.5195 157.6225
   157.6225 157.8577 158.1029 158.1029 158.1339 158.2403 158.4812 158.4812
   158.7356 158.7690 158.8382 159.0764 159.0764 159.0787 159.1384 159.1671
   159.2160 159.3331 159.3331 159.3500 159.6292 159.9934 159.9934 160.0699
   160.0955 160.1382 160.2305 160.2305 160.2489 160.4698 160.4698 160.5621
   160.7524 160.7524 160.8232 161.1095 161.1542 161.2660 161.2660 161.3352
   161.6231 161.8844 162.1986 162.1990 162.2358 162.2358 162.3117 162.3117
   162.5955 162.5955 162.8486 162.8705 163.1072 163.2335 163.4053 163.4053
   163.4410 163.4476 163.4476 163.5792 163.6371 163.6371 163.7382 163.8239
   163.8588 163.9012 163.9012 163.9269 164.0575 164.2071 164.2071 164.3500
   164.4365 164.4365 164.4447 164.6189 164.7045 164.9423 165.0084 165.0084
   165.1540 165.1540 165.2235 165.2664 165.3465 165.3556 165.3942 165.3942
   165.7278 165.7278 165.9948 165.9948 166.0336 166.2504 166.2504 166.3241
   166.3952 166.4613 166.6277 166.6480 166.6957 166.6957 166.7893 166.9140
   166.9140 166.9478 167.2104 167.6672 167.6672 167.9847 168.0477 168.1597
   168.2063 168.2063 168.2538 168.5714 168.5714 168.5909 168.7523 168.8346
   168.8549 168.9075 168.9075 169.0488 169.2409 169.2409 169.3995 169.5053
   169.5808 169.5827 169.5827 169.9348 169.9475 170.1582 170.1582 170.1828
   170.2537 170.5519 170.7022 170.7022 170.8380 171.2357 171.2357 171.3908
   171.4070 171.4070 171.5091 171.5253 171.5784 171.8258 171.8258 171.8322
   171.8977 171.9677 171.9677 172.2637 172.3470 172.3470 172.3891 172.4151
   172.5811 172.5811 172.5988 172.6820 172.6837 173.3092 173.3883 173.3883
   173.4432 173.4622 173.4622 173.5914 173.6153 173.8614 173.8943 174.2366
   174.2461 174.2461 174.5292 174.8883 174.8883 175.4436 175.4986 175.5010
   175.5010 175.6984 175.6984 175.7554 175.9163 176.0714 176.0845 176.0922
   176.1026 176.1026 176.2386 176.2386 176.2701 176.4307 176.5355 176.5355
   176.6985 176.6985 176.9569 177.0419 177.0634 177.1031 177.1031 177.1575
   177.2606 177.4361 177.4361 177.9301 177.9399 178.2165 178.2165 178.4422
   178.4489 178.5279 178.5279 178.8254 178.8254 179.1462 179.1462 179.3593
   179.5141 179.6861 179.8897 179.9771 180.1904 180.1904 180.2322 180.2615
   180.4603 180.4603 180.4888 180.6199 180.6948 180.8889 180.8889 181.0382
   181.2268 181.3414 181.4522 181.4522 181.6566 181.7347 181.7347 181.9762
   181.9762 182.2298 182.2740 182.2899 182.6086 182.7654 182.7654 182.9399
   182.9588 182.9588 183.1544 183.2241 183.2241 183.2713 183.2713 183.3310
   183.3427 183.3944 183.5210 183.5386 183.5490 183.5490 183.6831 183.7036
   183.7036 183.9449 183.9449 183.9661 184.0636 184.2574 184.5539 184.7059
   184.7059 184.7950 184.8325 184.8440 184.8440 185.0591 185.1857 185.1941
   185.1941 185.2955 185.3003 185.3428 185.3806 185.3806 185.5329 185.7347
   185.7893 185.7893 186.0461 186.1336 186.1336 186.3320 186.4132 186.4855
   186.5535 186.6223 186.6223 186.7184 186.7184 186.7253 186.7871 186.9888
   187.1132 187.1132 187.5663 187.5663 187.5771 187.7555 187.7589 187.8126
   187.8126 187.9931 188.0043 188.2620 188.4182 188.4182 188.5505 188.5979
   188.9326 188.9326 189.0553 189.1416 189.3350 189.3827 189.3827 189.7339
   189.8308 189.8794 189.8794 189.9807 190.3669 190.3866 190.3866 190.4426
   190.5203 190.7008 190.7008 190.7433 190.7602 190.8868 190.8868 191.2435
   191.6678 191.9097 191.9097 191.9266 192.2587 192.2587 192.5581 192.5907
   192.6072 192.6533 192.7309 192.8634 192.8634 193.1007 193.2180 193.3553
   193.3553 193.5434 193.5569 193.5569 193.8811 193.9521 193.9521 194.2015
   194.4950 194.5876 194.5876 194.5962 194.6063 194.6162 194.7786 194.9131
   194.9131 195.0877 195.1500 195.2060 195.3182 195.3182 195.3399 195.4267
   195.4461 195.4461 195.4999 195.5388 195.5388 195.5425 195.6277 195.7506
   195.7506 195.7818 195.7875 195.9383 196.0812 196.0812 196.3589 196.4351
   196.4887 196.4887 196.5038 196.5038 196.8009 196.8834 196.8834 196.9761
   197.1112 197.1112 197.2684 197.3964 197.4221 197.4567 197.4567 197.5192
   197.6126 197.7778 197.7864 197.7912 197.7912 197.8005 198.0814 198.0814
   198.1453 198.3045 198.3045 198.3639 198.3797 198.4554 198.5433 198.6834
   198.7262 198.7262 198.7885 198.8138 198.8138 198.9553 199.1153 199.1153
   199.2349 199.4215 199.4215 199.5893 199.6328 199.7181 199.7181 199.7763
   199.8273 199.9830 199.9830 199.9890 200.1157 200.4087 200.5457 200.6020
   200.6040 200.6040 200.6394 200.6394 200.6527 200.7236 201.0247 201.0391
   201.0732 201.0732 201.4335 201.4621 201.4621 201.4789 201.4789 201.6686
   201.7437 201.7565 202.0895 202.2071 202.2071 202.2819 202.3118 202.4852
   202.4852 202.5754 202.6746 202.6781 202.6781 202.8754 202.9477 202.9477
   202.9616 203.1159 203.1904 203.3744 203.3744 203.5014 203.5014 203.6370
   203.7922 203.8621 203.9323 204.0147 204.0147 204.1932 204.1932 204.2162
   204.2641 204.3939 204.4399 204.4399 204.5374 204.6695 204.6728 204.7186
   204.7254 204.7254 204.9323 204.9323 205.0310 205.2434 205.2759 205.5742
   205.6802 205.6802 205.7561 205.7568 205.8846 205.9173 205.9173 206.0023
   206.0107 206.0107 206.1621 206.1621 206.3516 206.3985 206.3985 206.4672
   206.7162 206.7162 206.8253 206.8915 206.9802 207.0047 207.0744 207.0744
   207.2568 207.4011 207.4273 207.4273 207.5163 207.5424 207.5508 207.5508
   207.5962 207.6945 207.6945 207.8281 207.9790 208.0043 208.0392 208.0392
   208.0577 208.6119 208.6119 208.6928 208.7472 209.1362 209.2335 209.3412
   209.3801 209.3801 209.8477 209.8477 209.9875 210.0229 210.1206 210.1206
   210.1522 210.1522 210.2378 210.3568 210.3700 210.5742 210.5742 210.6451
   210.7712 211.0658 211.1371 211.2722 211.2722 211.3600 211.4138 211.4606
   211.6456 211.6456 211.8501 211.8501 211.8648 212.0952 212.0952 212.1427
   212.1598 212.1698 212.1698 212.3653 212.4042 212.4727 212.5090 212.5090
   212.7421 212.7571 212.7571 212.7713 212.7865 212.7891 212.9056 212.9176
   212.9176 213.0438 213.0500 213.1167 213.1167 213.2705 213.2707 213.7461
   213.7491 213.8321 213.9429 213.9429 214.1004 214.1004 214.1461 214.2545
   214.3935 214.3935 214.5586 214.5586 214.6331 214.6540 215.0994 215.0994
   215.1743 215.2341 215.2341 215.2941 215.3087 215.3467 215.3467 215.4939
   215.5811 215.7955 215.9642 215.9804 215.9804 216.1876 216.1876 216.2551
   216.4271 216.5198 216.5198 216.6083 216.6112 216.6521 216.6521 216.9829
   217.1193 217.2091 217.2859 217.3909 217.3909 217.7368 217.7368 217.9379
   217.9586 218.1201 218.2150 218.2150 218.3380 218.3452 218.3452 218.5966
   218.7658 218.8131 218.8354 218.8354 218.9263 219.0677 219.0724 219.0724
   219.4966 219.7913 219.7913 219.8525 220.1052 220.1241 220.2617 220.2617
   220.4929 220.5402 220.6447 220.7562 220.7562 220.8578 220.8698 220.8698
   220.9757 221.6313 221.6313 221.7459 221.8903 221.9034 221.9651 222.0301
   222.0301 222.1286 222.1286 222.2388 222.2599 222.2989 222.3857 222.5276
   222.6841 222.6841 222.8359 222.8402 222.9575 222.9777 222.9777 223.0901
   223.1959 223.3861 223.4348 223.4348 223.7021 223.7021 223.7553 223.9950
   224.0702 224.1275 224.1275 224.1749 224.1749 224.1893 224.2871 224.2871
   224.3899 224.5428 224.5711 224.8603 224.8603 224.8901 225.0283 225.0283
   225.1856 225.2586 225.4923 225.4923 225.7011 225.7384 225.7819 225.7819
   225.8021 225.8335 226.0171 226.2063 226.2063 226.3374 226.5693 226.5784
   226.5784 226.6002 226.6181 226.6982 226.6987 226.6987 226.7425 226.8012
   226.8012 226.9962 227.0826 227.1049 227.1049 227.1191 227.2454 227.2841
   227.2841 227.4724 227.4803 227.4909 227.6786 227.7723 227.8521 227.8521
   227.9908 228.0886 228.0886 228.2036 228.2036 228.2140 228.2245 228.3973
   228.5097 228.5097 228.8232 228.8232 228.9082 228.9850 229.1389 229.2607
   229.2607 229.6896 229.6896 229.7399 229.8081 229.8088 229.8406 230.0265
   230.0976 230.0976 230.2047 230.2821 230.2821 230.4957 230.5115 230.5154
   230.5295 230.5295 230.6412 230.7614 230.7614 230.8874 230.9680 231.0906
   231.0906 231.2184 231.3184 231.4523 231.7113 231.7199 231.7199 232.2379
   232.4824 232.4824 232.6234 232.7047 232.8869 232.8869 233.2127 233.2893
   233.2893 233.2982 233.4148 233.4148 233.4493 233.5932 233.5932 233.8103
   233.8367 233.8948 233.9216 233.9216 233.9483 234.0235 234.0235 234.0922
   234.1741 234.3129 234.3129 234.3135 234.3960 234.5425 234.7763 235.0245
   235.3904 235.3904 235.4631 235.4954 235.5901 235.5901 235.5907 236.1092
   236.1221 236.1221 236.4871 236.4871 236.5562 236.5728 236.7887 236.9130
   237.1806 237.1868

     Writing output data file CsSnI3.save
 
     init_run     :      0.19s CPU      0.30s WALL (       1 calls)
     electrons    :    870.79s CPU    875.15s WALL (       1 calls)

     Called by init_run:
     wfcinit      :      0.00s CPU      0.07s WALL (       1 calls)
     potinit      :      0.03s CPU      0.03s WALL (       1 calls)

     Called by electrons:
     c_bands      :    870.79s CPU    875.12s WALL (       1 calls)
     v_of_rho     :      0.01s CPU      0.01s WALL (       1 calls)

     Called by c_bands:
     init_us_2    :      0.00s CPU      0.00s WALL (       1 calls)
     ccgdiagg     :    817.23s CPU    820.01s WALL (       6 calls)
     wfcrot       :     53.07s CPU     54.55s WALL (       6 calls)

     Called by sum_band:

     Called by *cgdiagg:
     h_psi        :    106.02s CPU    107.05s WALL (  113796 calls)
     cdiaghg      :     33.36s CPU     34.20s WALL (       6 calls)

     Called by h_psi:
     add_vuspsi   :      5.10s CPU      5.49s WALL (  113796 calls)
     h_1psi       :     99.86s CPU    101.18s WALL (  113790 calls)

     General routines
     calbec       :     32.99s CPU     33.26s WALL (  227586 calls)
     fft          :      0.00s CPU      0.01s WALL (      11 calls)
     fftw         :     64.26s CPU     64.41s WALL (  251700 calls)
     davcio       :      0.00s CPU      0.05s WALL (       2 calls)
 
     Parallel routines
     fft_scatter  :     27.58s CPU     27.41s WALL (  251711 calls)
 
     PWSCF        : 14m35.40s CPU    14m41.18s WALL

 
   This run was terminated on:   1:40:31  14Apr2017            

=------------------------------------------------------------------------------=
   JOB DONE.
=------------------------------------------------------------------------------=

     Program PWSCF v.5.3.0 (svn rev. 11974) starts on 14Apr2017 at  7:12: 4 

     This program is part of the open-source Quantum ESPRESSO suite
     for quantum simulation of materials; please cite
         "P. Giannozzi et al., J. Phys.:Condens. Matter 21 395502 (2009);
          URL http://www.quantum-espresso.org", 
[...]
    22.6847  22.6847  22.9155  23.0931  23.0931  23.3598  23.3598  23.3598
    23.8417  23.9267  23.9267  23.9267  24.4076  24.6467  24.6467  24.6467
    24.6474  24.6474  24.6474  24.9072  24.9072  25.8469  25.8469  25.8469
    26.0041  26.0041  26.0041  26.9813  26.9813  26.9813  27.2404  27.7890
    27.7890  27.7890  29.6044  29.6044  29.6044  29.7683  29.7683  29.7843
    29.7843  30.1976  30.2299  30.2299  30.2299  30.2610  30.2610  30.2610
    30.9191  30.9191  30.9191  31.0184  31.0184  31.0184  31.4263  31.7855
    31.7855  31.7855  32.9390  32.9390  33.3118  33.4808  33.9661  33.9661
    33.9661  34.9517  34.9517  35.1319  35.1319  35.1319  36.4035  36.4035
    36.4035  36.4548  36.4548  37.0085  37.0085  37.0085  37.7959  37.7959
    37.7959  37.8233  38.5798  38.5798  38.7800  38.7800  38.7800  39.7694
    39.7694  39.7694  39.9084  39.9084  39.9084  40.8864  40.8864  40.8864
    41.0644  41.0644  41.1717  41.1717  41.1717  41.3978  41.3978  41.3978
    41.5305  41.5305  41.5305  42.1041  42.7158  42.7158  42.7158  44.1918
    44.1918  44.1918  44.3787  44.6656  44.6656  44.6656  44.7087  44.9448
    44.9448  44.9448  45.3890  46.1790  46.1790  46.1790  46.8955  46.8955
    46.8955  47.4598  47.4598  47.5314  47.5314  47.5314  47.9489  47.9489
    47.9489  48.1683  48.1683  48.1683  48.8406  48.8406  49.6589  49.6589
    49.6589  50.2195  50.2195  50.2195  50.4040  50.4040  50.4629  50.4629
    50.6439  50.6439  50.6439  51.2635  51.2635  51.2635  51.5833  52.2401
    52.7975  52.7975  52.9062  52.9062  52.9062  52.9682  52.9682  52.9682
    53.2386  53.2386  53.2386  53.8925  53.9137  54.4413  54.4413  54.4413
    54.9646  54.9646  54.9646  55.2089  55.2089  55.2089  55.2393  55.6743
    56.0174  56.0174  56.3147  56.3147  56.3147  56.3847  56.5073  56.5073
    56.5073  57.0011  57.0011  57.0011  57.0262  57.0262  57.2334  57.2334
    57.2334  57.5601  57.5601  57.5601  57.8956  57.8956  57.9057  57.9057
    57.9300  57.9300  57.9300  58.5813  58.5813  58.5813  58.6108  58.6108
    58.6108  59.3513  60.8484  60.8484  60.8484  61.3607  61.3607  61.3607
    61.5328  61.5328  61.5328  61.7292  61.8920  61.8920  61.8920  61.8973
    61.8973  62.8395  62.8395  63.2611  63.2611  63.2611  64.0680  64.0680
    64.0680  64.2257  64.2257  64.2257  64.4179  64.6281  64.6281  64.6281
    64.8932  64.8932  64.8932  65.5032  65.5032  66.3392  66.3392  66.3392
    66.3937  66.3937  66.3937  67.1164  67.7716  67.7716  67.7716  67.9689
    67.9689  67.9689  69.3023  69.3023  69.7052  69.7052  69.7052  70.8025
    70.8025  70.8025  70.8623  70.9243  70.9243  70.9243  71.2984  71.2984
    71.6864  71.6864  71.6864  72.5900  72.5942  72.5942  72.5942  73.0531
    73.0531  73.0531  73.3347  73.3347  73.3347  73.6190  73.6190  73.6698
    74.0176  74.0176  74.0176  74.1514  74.1514  74.6774  74.6774  74.6774
    74.7044  74.7044  74.7044  75.2694  75.2694  75.2694  75.6527  75.6785
    75.8135  75.8135  75.8135  76.1700  76.4725  76.4725  76.4725  76.7631
    76.7631  76.7631  77.3260  77.3622  77.3622  77.7407  77.7407  78.1183
    78.1183  78.1183  78.1948  78.1948  78.1948  78.2087  78.5841  78.5841
    78.5841  78.6355  78.6355  78.6355  78.7444  78.7444  78.7444  78.9316
    78.9316  79.4746  79.4746  79.4746  79.5821  79.5821  79.5821  79.7961
    79.9716  79.9716  79.9716  80.5894  80.5894  80.5894  80.9555  80.9555
    80.9555  81.2251  81.2251  81.2438  81.2438  81.2438  81.6969  81.6969
    81.6969  81.8063  81.8063  81.8063  82.3089  82.3089  82.6771  83.3029
    83.5405  83.5405  83.5405  83.6135  83.6135  84.5525  84.5525  84.5525
    85.0430  85.0430  85.0430  85.0626  85.0626  85.0626  85.3458  85.3458
    85.3458  85.9504  85.9504  86.3278  86.3278  86.3278  86.3982  86.6483
    86.6483  87.5007  87.6101  87.6101  87.6101  88.0165  88.0165  88.0508
    88.0508  88.0508  88.1698  88.1698  88.1698  89.3199  89.3199  89.3199
    89.6742  89.6742  89.6742  89.8367  89.8367  89.8367  89.9243  89.9243
    90.0725  91.1865  91.1865  91.1865  91.5713  91.6691  91.6691  91.6691
    91.9569  91.9569  91.9569  92.1324  92.1324  92.1324  92.3400  92.4042
    92.4042  93.3736  93.3736  93.3736  93.4813  93.4813  93.4813  93.7442
    93.7442  93.7442  93.7738  93.9023  93.9023  93.9023  94.6791  94.6895
    94.6895  94.7727  94.7727  94.7727  94.8762  94.8762  94.8762  94.8897
    94.8897  94.8897  95.4145  95.4145  95.7394  95.7394  95.7855  95.7855
    95.7855  96.0617  96.0617  96.0617  96.0708  96.1153  96.3970  96.3970
    96.3970  96.4856  96.4856  96.4856  96.5364  96.5364  96.5364  96.8545
    96.8545  97.7562  97.7562  97.7562  97.8633  97.8633  97.8633  97.9869
    97.9869  97.9869  97.9961  97.9961  98.2854  98.2854  98.2854  99.1081
    99.1081  99.1081  99.1410  99.7923 100.3160 100.3160 100.3160 100.3541
   100.7546 100.7546 101.3394 101.3394 101.3394 101.6669 101.6669 101.6669
   102.1817 102.5180 102.5180 102.5180 102.6844 102.6844 102.9738 102.9738
   102.9738 103.1724 103.1724 103.1724 103.3635 103.3705 103.3705 103.3705
   103.6630 103.6630 104.1010 104.1010 104.1010 104.2846 104.2846 104.2855
   104.2855 104.2855 104.4978 104.4978 104.4978 104.7177 104.7177 104.7177
   105.1743 105.1743 105.4743 105.4743 105.4743 105.6434 105.6434 105.6434
   105.6739 106.5883 106.5883 106.5883 106.5900 106.5900 106.5900 107.0031
   107.0031 107.0031 107.5207 108.1369 108.5609 108.6064 108.6064 108.8885
   108.8885 108.8885 109.1796 109.1796 109.3631 109.3631 109.3631 109.3854
   109.3854 109.3854 109.5382 109.5382 109.5382 109.8101 109.8101 109.8101
   110.3156 110.3156 110.3156 110.3480 110.8098 110.8098 111.4356 111.4356
   111.4356 111.7187 111.7187 111.7187 111.8120 111.8120 111.8120 112.4872
   112.6544 112.6544 112.6544 112.8615 112.8615 113.5790 113.5790 113.5790
   114.1438 114.1438 114.1438 114.3492 114.3492 114.3492 114.8921 114.8921
   115.2531 115.2531 115.2531 115.9806 116.2952 116.2952 116.2952 116.4634
   116.4634 116.4634 116.6203 116.6203 116.6203 116.7319 116.7319 116.7319
   117.1496 117.1496 117.1496 117.1750 117.1750 117.4547 117.4547 118.3290
   118.3290 118.3290 118.8311 118.8311 118.8311 118.9112 118.9112 118.9112
   118.9920 119.0973 119.0973 119.0973 119.3388 119.5452 119.5452 119.5452
   120.4162 120.4162 120.8014 120.8014 120.8014 120.9265 120.9265 120.9265
   121.0662 121.0662 121.0931 121.0931 121.0931 121.4296 122.4317 122.4317
   122.4317 122.8423 122.8423 122.8423 122.8627 122.9405 123.1106 123.1106
   123.3822 123.3822 123.3822 123.4892 123.4892 123.4892 123.9737 123.9737
   123.9737 124.1818 124.1818 124.1818 124.3232 124.4935 124.4935 124.5461
   124.5461 124.6900 124.6900 124.6900 124.7280 125.3230 125.3304 125.3304
   125.4275 125.4275 125.4275 125.5200 125.5200 125.5200 125.5282 125.5282
   125.5282 125.5453 125.5453 125.5453 126.0308 126.0308 126.0308 126.0617
   126.0617 126.0617 126.4487 126.4487 126.4487 126.4937 126.4937 126.8896
   126.8896 127.0278 127.0278 127.0278 127.2087 127.2087 127.2087 127.3355
   127.3514 127.5649 127.5649 127.5649 127.8765 127.8765 127.8765 128.2836
   128.2836 128.2947 128.2947 128.2947 128.3108 128.3108 128.3108 128.4798
   128.4798 128.4798 128.9237 128.9237 128.9810 128.9810 128.9810 129.0871
   129.5624 130.0542 130.0542 130.0542 130.4897 130.4897 130.4897 131.0103
   131.0103 131.4938 131.5518 131.5518 131.5518 131.6060 131.6060 131.6060
   131.6685 131.6685 131.7506 131.7506 131.7506 131.8661 132.2360 132.2360
   132.4118 132.4118 132.4118 132.8557 132.8557 132.8557 132.9197 132.9197
   132.9197 133.2098 133.2098 133.2098 133.2392 133.2392 133.2392 133.2883
   133.2996 133.2996 133.5196 133.9447 133.9447 133.9447 133.9736 133.9736
   133.9736 134.1208 134.1208 134.1929 134.1929 134.1929 134.2486 134.2486
   134.2486 134.5203 134.5203 134.5203 134.7365 134.7365 134.7365 134.8722
   134.8722 134.8722 134.8798 134.8798 135.1727 135.1727 135.1727 135.3935
   135.3946 135.3946 135.4368 135.4368 135.4368 135.5573 136.4591 136.4591
   136.4591 136.5735 136.5735 136.6475 136.9394 136.9394 136.9394 137.2000
   137.2000 137.2000 137.9124 137.9124 137.9124 139.3928 139.5053 139.5053
   139.5053 140.1282 140.1282 140.1282 140.6127 140.6127 140.6127 141.0168
   141.0762 141.0762 141.0762 141.1904 141.1904 141.1904 141.7140 141.7140
   141.7140 141.9754 141.9754 142.5604 142.7607 142.7607 143.0916 143.0916
   143.0916 143.1362 143.1362 143.1362 143.2011 143.2011 143.2011 143.2242
   143.2242 143.2242 143.6775 143.6775 143.6775 143.8317 143.9186 143.9186
   144.1321 145.1239 145.5119 145.5119 145.5948 145.5948 145.5948 145.6672
   145.6672 145.6672 145.7183 145.7183 145.7183 146.3832 146.5157 146.5157
   146.5157 146.7826 146.7826 146.7826 146.8240 147.8317 147.8317 147.8317
   148.1106 148.1106 148.1106 148.1455 148.1455 148.2556 148.2556 148.2556
   148.4725 148.4725 148.4725 148.5964 148.5964 148.7713 148.7713 148.8909
   148.8909 148.8909 148.9825 148.9825 148.9825 149.0671 149.0671 149.0671
   149.2746 149.2746 149.4549 149.4549 149.4549 149.5650 149.5848 149.5848
   149.5848 149.6714 149.6714 149.6714 149.7036 149.8521 149.9750 150.0039
   150.0039 150.0370 150.0370 150.0404 150.0404 150.0404 150.1056 150.1056
   150.1056 150.1286 150.1286 150.1286 150.1802 150.1802 150.1802 150.2348
   150.2348 150.2348 150.3182 150.3182 150.3182 151.6749 151.6749 151.6749
   152.5725 152.5725 152.5725 152.7208 152.7338 152.7338 152.7338 152.7757
   152.7757 153.6713 153.6713 153.6713 154.9662 154.9662 155.4072 155.4072
   155.4072 155.4296 155.4296 155.4296 156.8432 156.8432 156.8432 156.9328
   156.9328 156.9328 157.4570 157.4570 157.4570 157.4695 157.4695 157.4695
   157.7280 158.0177 158.0177 158.2760 158.4224 158.4224 158.4224 158.5257
   158.5257 158.5257 158.6435 158.6435 158.8881 159.3779 159.3779 159.3779
   159.8911 159.8911 159.8911 160.0261 160.0261 160.0261 160.7150 160.7150
   160.7150 161.1272 161.1493 161.1493 161.1493 161.5767 161.5767 161.5767
   162.0676 162.4608 162.4608 162.4608 162.5722 162.8787 162.8787 162.8787
   162.9564 162.9564 162.9564 162.9975 162.9975 163.1956 163.2169 163.2169
   163.2169 163.2238 163.2238 163.9032 163.9032 163.9032 164.0889 164.0889
   164.0889 164.1332 164.1332 164.1332 164.3622 164.3622 164.3622 164.3950
   164.3950 164.3950 164.6146 164.6146 164.6198 164.6198 164.6198 164.7991
   164.7991 165.5541 165.5541 165.5541 165.7744 165.7744 165.7744 165.8820
   166.0514 166.2266 166.2266 166.2266 166.2951 166.2951 166.3038 166.3038
   166.3038 166.3696 166.3696 166.3848 166.3848 166.3848 166.4515 166.4515
   166.4515 166.5459 166.5459 166.5459 166.6461 166.7299 166.7299 166.7299
   167.0235 167.0235 167.0753 167.0753 167.0753 167.2488 167.2488 167.2488
   167.2705 167.2705 167.2705 167.3276 167.3276 167.3276 167.6034 167.9339
   167.9339 168.1884 168.5485 168.5485 168.5485 168.8088 168.8088 168.8430
   168.8430 168.8430 169.1189 169.7094 169.7094 169.7094 169.7397 169.7397
   169.7397 169.7709 169.7709 169.9602 169.9602 169.9602 170.4774 170.4774
   170.4774 170.7190 170.7190 170.7190 170.8020 170.8020 170.8020 171.1108
   171.1108 171.2452 171.2452 171.3711 171.3711 171.3711 171.7181 171.8667
   171.8667 171.8667 171.9998 172.1479 172.1479 172.1479 172.2882 172.2882
   172.2882 172.4771 172.4771 172.6309 172.6309 172.6309 172.7180 172.7180
   172.7180 172.7386 172.7386 172.9190 172.9190 172.9190 172.9846 173.1140
   173.1140 173.1512 173.1512 173.2710 173.2710 173.2710 173.3466 173.3716
   173.3805 173.3805 173.3805 173.5621 173.5621 173.5621 173.6527 173.6527
   173.6527 173.7090 173.7090 173.7090 173.7685 174.0717 174.0717 174.0717
   174.1934 174.1934 174.3832 174.5013 174.5013 174.5013 174.5816 174.5816
   174.5816 175.3940 175.3943 175.3943 175.3943 175.4037 175.4037 175.4037
   175.5893 175.6782 175.6782 175.7962 175.7962 175.7962 176.0602 176.0602
   176.0602 178.2479 178.5726 178.5726 178.5726 178.7292 178.9613 178.9613
   178.9613 179.2068 179.2068 179.3391 179.3391 179.3391 179.5026 179.5026
   179.5095 179.5095 179.5095 179.6087 179.6087 179.6087 180.0615 180.0615
   180.0615 180.1418 180.1418 180.1418 180.2167 180.2167 180.2167 180.3392
   180.3392 180.3936 180.3936 180.5036 180.5036 180.5036 180.5901 180.5901
   180.5901 180.5943 180.5943 180.5943 180.6078 180.6078 180.6078 180.6332
   180.8706 180.8706 181.0684 181.0684 181.0684 181.4547 181.4925 181.4925
   181.4925 182.4102 182.7264 182.7264 182.7264 182.8820 182.8820 182.8820
   183.2848 183.2848 183.3086 183.3086 183.3086 183.6732 183.6732 183.6732
   184.7338 184.7338 185.5626 185.5626 185.5626 185.9194 186.0335 186.0335
   186.0335 186.1068 186.1068 186.1068 186.3480 186.3536 186.8309 186.8309
   186.8309 187.0375 187.0375 187.0375 187.7687 187.7687 187.8251 187.8251
   187.8251 187.8996 187.8996 187.8996 187.9271 188.1412 188.1412 188.1412
   188.2417 188.2417 188.2417 188.2471 188.2471 188.2471 188.3340 188.3340
   188.3340 188.5270 188.6612 188.6612 188.7584 188.7584 188.7584 188.8807
   188.8807 188.9669 189.0118 189.0118 189.0118 189.2334 189.2334 189.9854
   189.9854 189.9854 189.9895 189.9895 189.9895 190.1309 190.1309 190.1309
   190.3078 190.3078 190.3078 190.4032 190.7652 190.7652 190.7652 190.8676
   190.8676 190.9739 190.9739 190.9739 191.1491 191.1491 191.1491 191.6193
   191.6193 191.6664 191.6664 191.6664 191.9042 191.9042 191.9042 192.8387
   193.3435 193.3435 193.3435 193.3932 193.3932 193.3932 193.4754 193.4754
   193.4754 194.2049 194.2049 194.6715 194.6715 194.6715 194.6734 194.7658
   194.7795 194.7795 194.8981 194.8981 195.0445 195.0445 195.0445 195.1129
   195.1129 195.1129 195.4526 195.4526 195.4526 195.4742 195.6160 195.6160
   195.6160 195.7848 195.7848 195.8511 195.8511 195.8511 196.0180 196.0180
   196.0180 196.1620 196.1710 196.1710 196.1710 196.4128 196.4128 196.4128
   196.4995 196.4995 196.4995 196.6445 196.6445 196.6445 196.8493 196.8493
   196.8627 196.8627 196.8627 197.1240 197.1240 197.1240 197.1477 197.1477
   197.1477 197.6478 197.6478 197.6478 197.9097 198.0200 198.0200 198.0693
   198.0693 198.1575 198.6592 198.6592 198.6592 199.6037 199.6037 199.6037
   200.3648 200.3648 200.3648 200.4578 200.5159 200.5159 200.5159 201.4097
   201.4097 201.6373 201.7678 201.8045 201.8045 201.8045 201.9827 201.9827
   201.9827 202.1239 202.1239 202.1239 202.1988 202.1988 202.1988 202.3664
   202.3664 202.3664 202.3972 202.3972 202.6837 202.7028 202.7028 202.7028
   202.8147 202.8147 202.8147 202.9310 202.9310 202.9310 203.5740 203.5740
   203.7090 203.7090 203.7945 203.7945 203.7945 203.8212 203.8212 203.8212
   203.9267 203.9267 203.9267 204.0703 204.1367 204.1367 204.2157 204.2157
   204.2157 204.2612 204.2612 204.2612 204.5771 204.5771 204.5771 204.6532
   204.6532 204.7748 204.7748 204.7748 204.8114 204.8114 204.8114 204.8146
   205.0594 205.0594 205.0594 205.1204 205.2338 206.2048 206.2048 206.2048
   206.3202 206.3202 206.5648 206.5648 206.5648 206.8002 206.8002 206.8002
   207.0005 207.0005 207.7981 207.7981 207.7981 208.3640 208.3640 208.3640
   208.9552 208.9552 209.2125 209.4169 209.4169 209.4169 209.5283 209.8556
   209.8556 209.8556 209.9986 209.9986 210.0026 210.0026 210.0026 210.1636
   210.1636 210.1636 210.1656 210.1656 210.1656 210.8286 210.8286 210.8286
   211.3151 211.3151 211.3151 211.3319 211.3319 211.4636 211.4636 211.4636
   211.7827 211.7827 211.7827 211.7888 211.7888 211.7888 211.9208 211.9862
   211.9862 212.2538 212.2538 212.2538 212.4332 212.4332 212.4332 212.8174
   212.8174 212.8174 212.8721 213.0337 213.0337 213.0337 213.0648 213.2091
   213.2091 213.2091 213.2123 213.2123 213.2123 213.2505 213.2888 213.3774
   213.3774 213.3774 213.4259 213.4259 213.4259 213.5271 213.5271 213.5271
   213.5752 213.5752 213.6403 213.6403 214.5464 214.5464 214.5464 214.6569
   214.6569 214.6569 215.8697 215.8697 215.8697 216.2219 216.2219 216.2219
   216.2525 216.2525 216.2525 216.3885 216.3885 216.3885 216.9045 216.9260
   216.9535 216.9535 216.9535 217.3613 217.3613 217.5716 217.5716 217.5716
   217.7017 217.7017 217.7189 217.7189 217.7189 217.8162 217.8321 218.2486
   218.2486 218.3457 218.3457 218.3457 218.3724 218.3724 218.3724 218.5745
   218.5745 218.5745 218.6197 218.6197 218.6947 218.6947 218.6947 218.7352
   218.7352 218.7549 218.7549 218.7549 218.7831 218.7831 218.7831 218.9754
   218.9754 218.9754 219.2971 219.2971 219.2971 219.4273 219.4273 219.4273
   219.7380 219.7530 219.7530 219.7703 219.8284 219.8284 219.8284 219.8456
   219.8456 219.8456 219.9751 219.9751 219.9751 220.1247 220.1247 220.1247
   220.1644 220.1644 220.1644 220.2048 220.2048 220.2760 220.2760 220.2760
   220.3645 220.5364 220.5364 220.5784 220.5784 220.5784 220.6316 220.6316
   220.6316 220.6706 220.6706 220.6706 220.9253 220.9253 220.9253 221.0892
   221.0892 221.0892 221.1760 221.2210 221.2210 221.9185 221.9185 221.9185
   222.4338 222.4338 222.4338 222.5347 222.5761 222.5761 222.6058 222.6058
   222.6058 223.4841 223.9180 223.9522 223.9522 224.3164 224.3164 224.3164
   224.4157 224.4157 224.4157 225.3012 225.3012 225.6265 225.6265 225.6265
   225.8039 225.8039 225.8039 226.5214 226.5214 226.5456 228.6681 228.6681
   228.6681 228.9127 228.9127 228.9127 229.2501 229.2501 229.2501 229.4463
   229.4463 229.4463 229.8882 229.8882 229.8882 229.9176 229.9176 229.9176
   229.9676 230.0635 230.0635 230.1153 230.1546 230.1546 230.1546 230.4954
   230.4954 230.6264 230.7193 230.7193 230.7193 231.0554 231.0554 231.0554
   231.1681 231.1681 231.3727 231.3727 231.3727 232.8023 232.8023 232.8023
   232.9851 233.1445 233.1445 233.1445 233.2575 233.2575 233.2575 233.3394
   233.3394 233.3394 233.3475 233.3475 233.3475 233.3527 233.3636 233.3636
   233.3636 233.4024 233.5382 233.5382 233.5382 233.9339 233.9339 234.1730
   234.1730 234.1730 234.2366 234.2706 234.2706 234.3299 234.3299 234.3299
   234.6050 234.6050 234.6050 234.7179 234.7179 234.7179 234.9539 235.0662
   235.0662 235.0931 235.0931 235.1353 235.1383 235.1383 235.1383 235.2874
   235.2874 235.2874 235.2997 235.2997 235.2997 235.3369 235.3369 235.3369
   235.4055 235.4055 235.4055 235.4486 235.4486 235.5647 235.5647 235.5647
   235.7070 235.7681 235.9280 235.9280 235.9280 236.1178 236.1178 236.1178
   236.1886 236.2527 236.2527 236.2527 236.3366 236.3366 236.3366 236.4015
   236.4016 236.7238

     Writing output data file CsSnI3.save
 
     init_run     :      0.16s CPU      0.21s WALL (       1 calls)
     electrons    :    889.26s CPU    893.93s WALL (       1 calls)

     Called by init_run:
     wfcinit      :      0.00s CPU      0.03s WALL (       1 calls)
     potinit      :      0.03s CPU      0.03s WALL (       1 calls)

     Called by electrons:
     c_bands      :    889.24s CPU    893.87s WALL (       1 calls)
     v_of_rho     :      0.01s CPU      0.01s WALL (       1 calls)

     Called by c_bands:
     init_us_2    :      0.00s CPU      0.00s WALL (       1 calls)
     ccgdiagg     :    835.54s CPU    838.76s WALL (       6 calls)
     wfcrot       :     53.27s CPU     54.58s WALL (       6 calls)

     Called by sum_band:

     Called by *cgdiagg:
     h_psi        :    106.18s CPU    108.10s WALL (  114859 calls)
     cdiaghg      :     33.38s CPU     33.99s WALL (       6 calls)

     Called by h_psi:
     add_vuspsi   :      5.39s CPU      5.48s WALL (  114859 calls)
     h_1psi       :     99.95s CPU    102.08s WALL (  114853 calls)

     General routines
     calbec       :     32.07s CPU     32.47s WALL (  229712 calls)
     fft          :      0.01s CPU      0.01s WALL (      11 calls)
     fftw         :     65.80s CPU     66.67s WALL (  253826 calls)
     davcio       :      0.00s CPU      0.08s WALL (       2 calls)
 
     Parallel routines
     fft_scatter  :     28.71s CPU     29.05s WALL (  253837 calls)
 
     PWSCF        : 14m53.92s CPU    14m59.85s WALL

 
   This run was terminated on:   1:25:36  14Apr2017            

=------------------------------------------------------------------------------=
   JOB DONE.
=------------------------------------------------------------------------------=
